/*--------------------------------*- C++ -*----------------------------------*\
| =========                 |                                                 |
| \\      /  F ield         | OpenFOAM: The Open Source CFD Toolbox           |
|  \\    /   O peration     | Version:  v1812                                 |
|   \\  /    A nd           | Web:      www.OpenFOAM.com                      |
|    \\/     M anipulation  |                                                 |
\*---------------------------------------------------------------------------*/
FoamFile
{
    version     2.0;
    format      ascii;
    class       volScalarField;
    location    "3";
    object      alpha.water;
}
// * * * * * * * * * * * * * * * * * * * * * * * * * * * * * * * * * * * * * //

dimensions      [0 0 0 0 0 0 0];


internalField   nonuniform List<scalar> 
6000
(
0
0
0
0
0
0
0
0
0
0
0
0
0
0
0
0
0
0
0
0
0
0
0
0
0
0
0
0
0
0
0
0
0
0
0
0
0
0
0
0
0
0
0
0
0
0
0
0
0
0
0
0
0
0
0
0
0
0
0
0
0
0
0
0
0
0
0
0
0
0
0
0
0
0
0
0
0
0
0
0
0
0
0
0
0
0
0
0
0
0
0
0
0
0
0
0
0
0
0
0
0
0
0
0
0
0
0
0
0
0
0
0
0
0
0
0
0
0
0
0
0
0
0
0
0
0
0
0
0
0
0
0
0
0
0
0
0
0
0
0
0
0
0
0
0
0
0
0
0
0
0
0
0
0
0
0
0
0
0
0
0
0
0
0
0
0
0
0
0
0
0
0
0
0
0
0
0
0
0
0
0
0
0
0
0
0
0
0
0
0
0
0
0
0
0
0
0
0
0
0
0
0
0
0
0
0
0
0
0
0
0
0
0
0
0
0
0
0
0
0
0
0
0
0
0
0
0
0
0
0
0
0
0
0
0
0
0
0
0
0
0
0
0
0
0
0
0
0
0
0
0
0
0
0
0
0
0
0
0
0
0
0
0
0
0
0
0
0
0
0
0
0
0
0
0
0
0
0
0
0
0
0
0
0
0
0
0
0
0
0
0
0
0
0
0
0
0
0
0
0
0
0
0
0
0
0
0
0
0
0
0
0
0
0
0
0
0
0
0
0
0
0
0
0
0
0
0
0
0
0
0
0
0
0
0
0
0
0
0
0
0
0
0
0
0
0
0
0
0
0
0
0
0
0
0
0
0
0
0
0
0
0
0
0
0
0
0
0
0
0
0
0
0
0
0
0
0
0
0
0
0
0
0
0
0
0
0
0
0
0
0
0
0
0
0
0
0
0
0
0
0
0
0
0
0
0
0
0
0
0
0
0
0
0
0
0
0
0
0
0
0
0
0
0
0
0
0
0
0
0
0
0
0
0
0
0
0
0
0
0
0
0
0
0
0
0
0
0
0
0
0
0
0
0
0
0
0
0
0
0
0
0
0
0
0
0
0
0
0
0
0
0
0
0
0
0
0
0
0
0
0
0
0
0
0
0
0
0
0
0
0
0
0
0
0
0
0
0
0
0
0
0
0
0
0
0
0
-6.6356855711928e-68
1.5431946941995e-65
1.1487528350248e-63
-3.843960425854e-53
-2.4847926194968e-51
-8.0216493936639e-50
-1.7243988347736e-48
-2.7769259268197e-47
-3.5733175463702e-46
-3.8272596233551e-45
-3.509515550721e-44
-2.8125721918494e-43
-2.0012269838117e-42
-1.2800286644212e-41
-7.4342642560982e-41
-3.9532551465736e-40
-1.9381892155069e-39
-8.8133064071949e-39
-3.7359741382953e-38
-1.4829452354717e-37
-5.5335249432784e-37
-1.9477757447679e-36
-6.4875139302571e-36
-2.0503314782108e-35
-6.1640028518893e-35
-1.7667696216012e-34
-4.8380799070478e-34
-1.2681288113194e-33
-3.1871683621886e-33
-7.6929483496375e-33
-1.7859494700334e-32
-3.9932789257874e-32
-8.6104924817924e-32
-1.79258744167e-31
-3.6071896033051e-31
-7.0233682679874e-31
-1.3244437359061e-30
-2.421205211804e-30
-4.2945234236354e-30
-7.3966954129386e-30
-1.2380395911655e-29
-2.0152184916983e-29
-3.1922789508941e-29
-4.9244264899358e-29
-7.4021442754291e-29
-1.0848366228723e-28
-1.5510354141856e-28
-2.1645320727492e-28
-2.9499527589812e-28
-3.9281561610586e-28
-5.1131645424013e-28
-6.5089986256578e-28
-8.1068084708063e-28
-9.8827379755386e-28
-1.1796941639675e-27
-1.3794080577379e-27
-1.5805465643348e-27
-1.7752808318069e-27
-1.9553315657524e-27
-2.112566133118e-27
-2.2396216666532e-27
-2.3304861326054e-27
-2.3809726078295e-27
-2.3890346213223e-27
-2.3548903190789e-27
-2.2809471543181e-27
-2.1715429599942e-27
-2.0325399642897e-27
-1.8708227196767e-27
-1.6937574513255e-27
-1.5086688288659e-27
-1.3223817532829e-27
-1.1408624887411e-27
-9.6897787438059e-28
-8.1037590831832e-28
-6.6747775490169e-28
-5.4156154651089e-28
-4.3291281627057e-28
-3.4101487921399e-28
-2.6475430750822e-28
-2.0262083439117e-28
-1.528864927595e-28
-1.1375456057796e-28
-8.3474173110387e-29
-6.0420767988839e-29
-4.3145617977583e-29
-3.0399567640675e-29
-2.1136873800659e-29
-1.4504996092935e-29
-9.8255626659258e-30
-6.5707998913468e-30
-4.3386713285183e-30
-7.676225648053e-30
0
0
0
0
0
0
5.0718533315323e-67
3.2140567236606e-65
1.6555856260645e-63
6.3057759328901e-62
-1.2158318399995e-51
-7.8484900119261e-50
-2.5302361069372e-48
-5.4317096929439e-47
-8.7350344219608e-46
-1.1224667061958e-44
-1.2005806613178e-43
-1.0993910251648e-42
-8.7985341797712e-42
-6.251794090074e-41
-3.9932796212674e-40
-2.3160598671792e-39
-1.229896168235e-38
-6.0215966032632e-38
-2.7343638977858e-37
-1.1575062528576e-36
-4.588246448086e-36
-1.7097229637775e-35
-6.00987165323e-35
-1.9989735788203e-34
-6.3089267613979e-34
-1.8940744989286e-33
-5.4214710963247e-33
-1.4825640016902e-32
-3.8806741812671e-32
-9.7398537912482e-32
-2.3477081424778e-31
-5.4428274558476e-31
-1.2153165807153e-30
-2.6169319393632e-30
-5.4406368749772e-30
-1.0933107731022e-29
-2.1258160825233e-29
-4.0033143125963e-29
-7.3084293922658e-29
-1.2945358306255e-28
-2.226608466105e-28
-3.7217574281744e-28
-6.049834313312e-28
-9.5704067863683e-28
-1.4743271619255e-27
-2.2131193250693e-27
-3.2390760262625e-27
-4.6247524111246e-27
-6.4452716752312e-27
-8.7720916499819e-27
-1.1665093254695e-26
-1.5163557122847e-26
-1.9276928779632e-26
-2.3976534330168e-26
-2.9189530368581e-26
-3.4796301942004e-26
-4.0632239283658e-26
-4.649434587182e-26
-5.2152516671605e-26
-5.7364668911348e-26
-6.1894317947094e-26
-6.5528772475729e-26
-6.8095955039935e-26
-6.9477970942802e-26
-6.9619936245484e-26
-6.853317075594e-26
-6.6292567421428e-26
-6.3028652732075e-26
-5.8915447469405e-26
-5.4155642527852e-26
-4.8964777403564e-26
-4.3556047680135e-26
-3.8127108030655e-26
-3.2849840871462e-26
-2.7863602040697e-26
-2.3272005925662e-26
-1.9142931992975e-26
-1.5511160737903e-26
-1.2382894953514e-26
-9.7413866490022e-27
-7.5529502944825e-27
-5.7727699844929e-27
-4.3500700228742e-27
-3.2323868188943e-27
-2.3688328125486e-27
-1.7123663483995e-27
-1.2211687150274e-27
-8.5928113700617e-28
-5.9667504323533e-28
-4.0892562214384e-28
-2.766394127255e-28
-1.84758785957e-28
-1.2183558420837e-28
-2.1481693967528e-28
0
0
0
0
0
3.1037619776616e-68
1.5314074633056e-65
9.3984947197243e-64
4.0485952844073e-62
1.3253865599424e-60
-1.9200865958419e-50
-1.237745703684e-48
-3.9847784094577e-47
-8.542348385424e-46
-1.3718377389574e-44
-1.7603895652149e-43
-1.8802848789118e-42
-1.7194173164671e-41
-1.3741560305776e-40
-9.750498651463e-40
-6.2193952482746e-39
-3.6021711304379e-38
-1.9102006904986e-37
-9.3393806735049e-37
-4.2350495917674e-36
-1.7902810796585e-35
-7.0866378377016e-35
-2.6370285482476e-34
-9.2565648998358e-34
-3.0745904796553e-33
-9.6901680591986e-33
-2.9051498058276e-32
-8.3039428304551e-32
-2.2676524088534e-31
-5.9274264641436e-31
-1.4856193355467e-30
-3.5759834716017e-30
-8.2788966127301e-30
-1.8460099661685e-29
-3.9694837452777e-29
-8.2411648941638e-29
-1.6537888508963e-28
-3.2111457674696e-28
-6.0388226632644e-28
-1.1009187695766e-27
-1.9473514192482e-27
-3.3448263186744e-27
-5.5831293001419e-27
-9.0630312330378e-27
-1.4317304301523e-26
-2.2025516155391e-26
-3.3017102296199e-26
-4.8256709869762e-26
-6.8806276852445e-26
-9.5760053966852e-26
-1.3015189381546e-25
-1.7283843784996e-25
-2.243668121764e-25
-2.8484028543087e-25
-3.5379905492176e-25
-4.3013493390495e-25
-5.1205747970808e-25
-5.9712475044077e-25
-6.8234471685605e-25
-7.6434429572999e-25
-8.3959339503773e-25
-9.0466287694177e-25
-9.564894671448e-25
-9.9261847714851e-25
-1.011397226286e-24
-1.0120979769955e-24
-9.9495806676246e-25
-9.6113528158707e-25
-9.125867186194e-25
-8.5188789683614e-25
-7.8201454923133e-25
-7.0611178296035e-25
-6.2727414781704e-25
-5.4835616548624e-25
-4.7182697018724e-25
-3.996759853618e-25
-3.333700560857e-25
-2.7385700926402e-25
-2.2160675308591e-25
-1.7667895082785e-25
-1.3880591312646e-25
-1.0748033153858e-25
-8.2039389356295e-26
-6.1739172840547e-26
-4.5815756797507e-26
-3.3531539969171e-26
-2.4207162426512e-26
-1.7240566238095e-26
-1.2115471517746e-26
-8.4018054157303e-27
-5.7505485349572e-27
-3.8851670256048e-27
-2.5913847569986e-27
-1.7066032318477e-27
-2.9987274606316e-27
0
0
0
0
0
1.0258054003063e-66
1.7916800832263e-64
9.8831699511482e-63
4.2267061117813e-61
1.4043732319735e-59
-2.0186393620443e-49
-1.2994629868612e-47
-4.1776376288849e-46
-8.9432941740093e-45
-1.434221322197e-43
-1.8378709728686e-42
-1.9602996469391e-41
-1.790081093208e-40
-1.428632173689e-39
-1.0122900122347e-38
-6.4479440830724e-38
-3.7293585009602e-37
-1.9749115821822e-36
-9.6424684911316e-36
-4.3664970446934e-35
-1.8433329421522e-34
-7.2867579222297e-34
-2.7078482542317e-33
-9.4924583127426e-33
-3.1487594904857e-32
-9.9108488065991e-32
-2.967421617539e-31
-8.4709072351626e-31
-2.3102572118698e-30
-6.0310290528626e-30
-1.5096524064075e-29
-3.6292049482641e-29
-8.3914499618081e-29
-1.8687392593652e-28
-4.0132843862969e-28
-8.3215922318374e-28
-1.667823351186e-27
-3.2343125928882e-27
-6.0747112148245e-27
-1.1060609169941e-26
-1.9539667542694e-26
-3.3519212226984e-26
-5.5878318961477e-26
-9.0590423880625e-26
-1.4292584166379e-25
-2.1959052902021e-25
-3.28746871914e-25
-4.7985781556772e-25
-6.8330098203687e-25
-9.4971732443584e-25
-1.2890901822653e-24
-1.7095933117577e-24
-2.2162953155105e-24
-2.8098547699483e-24
-3.485375489434e-24
-4.2316053031764e-24
-5.0306475302688e-24
-5.858309671162e-24
-6.6851421598142e-24
-7.4781306441837e-24
-8.20291197478e-24
-8.826302653523e-24
-9.3188735477642e-24
-9.6572866360388e-24
-9.8261324406954e-24
-9.8190673507776e-24
-9.6391383642995e-24
-9.2982844172652e-24
-8.8161022626039e-24
-8.2180460483336e-24
-7.5332825283794e-24
-6.7924429948867e-24
-6.025499247449e-24
-5.2599500346226e-24
-4.5194457023971e-24
-3.8229129508244e-24
-3.1841787260256e-24
-2.6120403004857e-24
-2.1106924117132e-24
-1.6804035882231e-24
-1.3183313045589e-24
-1.0193761458979e-24
-7.7699441894484e-25
-5.8391213991924e-25
-4.3270712496237e-25
-3.1624704889142e-25
-2.279880202356e-25
-1.6214972832381e-25
-1.1378971307114e-25
-7.8801544226197e-26
-5.386073448429e-26
-3.6339174049656e-26
-2.4204777309051e-26
-1.5918680295447e-26
-2.7871632891061e-26
0
0
0
0
0
1.4685844971819e-65
4.974958233123e-64
7.6514206701047e-63
1.0303255658056e-60
6.2744300253841e-59
-1.5894211140588e-48
-1.0217276914453e-46
-3.2801395027335e-45
-7.0121319082066e-44
-1.1229523779169e-42
-1.4369941415427e-41
-1.5305940192816e-40
-1.3957613071258e-39
-1.1124070714128e-38
-7.871505642541e-38
-5.0071328775026e-37
-2.8921661096555e-36
-1.5295548155597e-35
-7.458331965268e-35
-3.373115680313e-34
-1.422183118573e-33
-5.6149942136343e-33
-2.084070703517e-32
-7.2970968177589e-32
-2.4177109822827e-31
-7.6011508718507e-31
-2.2733236714293e-30
-6.482387912097e-30
-1.7660279556797e-29
-4.6054204907784e-29
-1.1516041918522e-28
-2.7656240982785e-28
-6.3882241546898e-28
-1.4212107280227e-27
-3.0491618572736e-27
-6.3162723565327e-27
-1.2646791706773e-26
-2.4501300557707e-26
-4.5973699211708e-26
-8.3625413000145e-26
-1.4758747219887e-25
-2.5292738998197e-25
-4.2122172748215e-25
-6.8219696376865e-25
-1.0752070236178e-24
-1.6502195685851e-24
-2.467906668472e-24
-3.5984057761302e-24
-5.1183612475635e-24
-7.1059951266624e-24
-9.6341936646389e-24
-1.2761916678611e-23
-1.6524599883831e-23
-2.0924564331945e-23
-2.5922699184153e-23
-3.143277458186e-23
-3.7319620736183e-23
-4.3402062871415e-23
-4.9460958300021e-23
-5.5252013710749e-23
-6.0522372038435e-23
-6.5029366466359e-23
-6.8559451187026e-23
-7.0945208736443e-23
-7.2078527594727e-23
-7.1918512649194e-23
-7.0493358074106e-23
-6.7896167776083e-23
-6.4275432807319e-23
-5.9821460317523e-23
-5.4750417927312e-23
-4.9287776106716e-23
-4.3652808324859e-23
-3.8045490630428e-23
-3.2636699506074e-23
-2.7562118797269e-23
-2.2919806988553e-23
-1.877100194733e-23
-1.5143485324491e-23
-1.2036702996061e-23
-9.4278305912112e-24
-7.2780591939666e-24
-5.5385233723262e-24
-4.1554688001587e-24
-3.0744313836123e-24
-2.2433529917572e-24
-1.6146781741228e-24
-1.1465571231493e-24
-8.0332438634612e-25
-5.554363813539e-25
-3.7904159377141e-25
-2.5533372019936e-25
-1.6980731371705e-25
-1.1150345119863e-25
-1.9444950572605e-25
0
0
0
0
0
-2.5302610844853e-60
-1.6513195249185e-58
-5.3815907225474e-57
-1.1676574263804e-55
-1.8974524343336e-54
-9.9974793048518e-48
-6.4176076436739e-46
-2.0573897691176e-44
-4.3920257899583e-43
-7.02383081987e-42
-8.9758349970631e-41
-9.5476721219343e-40
-8.6951593751224e-39
-6.9210338615169e-38
-4.8912335901285e-37
-3.1075359580144e-36
-1.7927940695278e-35
-9.4703625470807e-35
-4.6126709729969e-34
-2.0838505103916e-33
-8.7766992818252e-33
-3.4616374944719e-32
-1.2835647444951e-31
-4.4899876767167e-31
-1.4862977561448e-30
-4.6687839488438e-30
-1.3951632282453e-29
-3.975154558501e-29
-1.0821493552108e-28
-2.8199681198247e-28
-7.0465606837621e-28
-1.6911374015804e-27
-3.9038149463276e-27
-8.6796277879751e-27
-1.8610815447914e-26
-3.8529665238378e-26
-7.7102717300425e-26
-1.4929218241196e-25
-2.7997406747503e-25
-5.0898731474297e-25
-8.9779348245227e-25
-1.5377192876988e-24
-2.5594121076756e-24
-4.1426626177405e-24
-6.525178305915e-24
-1.0008313112663e-23
-1.49573050558e-23
-2.1793409908297e-23
-3.0975608996215e-23
-4.2970432324476e-23
-5.8209900617755e-23
-7.7039545537754e-23
-9.966066381298e-23
-1.2607302027479e-22
-1.5602569302778e-22
-1.889842322281e-22
-2.2412149095063e-22
-2.6033730835087e-22
-2.9630887513005e-22
-3.3056954249994e-22
-3.6160969196945e-22
-3.8798977807681e-22
-4.0845342927874e-22
-4.2202797431838e-22
-4.2810108163828e-22
-4.2646515678155e-22
-4.1732524807928e-22
-4.0127078819492e-22
-3.7921582086299e-22
-3.5231578776108e-22
-3.2187103664432e-22
-2.8922777485582e-22
-2.5568631316267e-22
-2.2242442375904e-22
-1.9044091175672e-22
-1.6052155377243e-22
-1.3322682865807e-22
-1.0889868380813e-22
-8.7682133574988e-23
-6.9556817736137e-23
-5.4373680346557e-23
-4.1892503067699e-23
-3.1816943907911e-23
-2.3824794749564e-23
-1.7592211790415e-23
-1.281157182679e-23
-9.2032956564494e-24
-6.522436303708e-24
-4.5610691388937e-24
-3.1475814445198e-24
-2.1438894894313e-24
-1.4414612185997e-24
-9.5683542784081e-25
-6.2713694501764e-25
-1.0884968445154e-24
0
0
0
0
0
-8.2842746090837e-59
-5.3999056879989e-57
-1.7576725571281e-55
-1.697971511515e-53
-8.67031875315e-52
-5.2353856179526e-47
-3.3548337248622e-45
-1.0738959731267e-43
-2.2892330945333e-42
-3.6559748478308e-41
-4.6658703431221e-40
-4.9568894782895e-39
-4.5088808745704e-38
-3.5848175864133e-37
-2.5307215495887e-36
-1.6061883664611e-35
-9.257399688965e-35
-4.8857016142234e-34
-2.3775930633317e-33
-1.0732451596043e-32
-4.5168247942367e-32
-1.7802268452234e-31
-6.5966762102551e-31
-2.3061518263246e-30
-7.6296653947267e-30
-2.3954203716756e-29
-7.1548805611101e-29
-2.0377530977753e-28
-5.5453023592117e-28
-1.4445826891795e-27
-3.6087309346268e-27
-8.6587109293339e-27
-1.9983767370307e-26
-4.4424074588494e-26
-9.524135124204e-26
-1.9715604064814e-25
-3.9450181483421e-25
-7.6381524950908e-25
-1.4323395407485e-24
-2.6038404666606e-24
-4.5926423293523e-24
-7.8657223577877e-24
-1.3090938084753e-23
-2.1187011465504e-23
-3.3367960037876e-23
-5.1171698404246e-23
-7.6460223583986e-23
-1.1137799752612e-22
-1.5825669737325e-22
-2.1945903021534e-22
-2.9716192618323e-22
-3.9308956368783e-22
-5.0821801244715e-22
-6.4248382450036e-22
-7.9453635109962e-22
-9.6157575246852e-22
-1.1393141230784e-21
-1.3220855529639e-21
-1.5031133636844e-21
-1.6749216213814e-21
-1.8298567300983e-21
-1.9606671607368e-21
-2.0610784525696e-21
-2.1262986778726e-21
-2.1533971272808e-21
-2.1415148722842e-21
-2.0918874363873e-21
-2.0076834821989e-21
-1.8936854228492e-21
-1.7558549362324e-21
-1.6008363216879e-21
-1.4354526865902e-21
-1.2662446505374e-21
-1.0990902767775e-21
-9.3893061838175e-22
-7.8961010209009e-22
-6.5382718699335e-22
-5.3317995049315e-22
-4.2828434107225e-22
-3.3893992578625e-22
-2.6431857468218e-22
-2.0315479384029e-22
-1.5392130455568e-22
-1.1497896093063e-22
-8.4695369436698e-23
-6.1531041493986e-23
-4.4095261058941e-23
-3.1176007280391e-23
-2.1749338689718e-23
-1.4973830561506e-23
-1.017521707898e-23
-6.8255764788338e-24
-4.5204249662874e-24
-2.9561149793309e-24
-5.1016533485697e-24
0
0
0
0
0
-1.3545005276324e-57
-8.8185983732803e-56
-2.8670996884868e-54
-4.7180220992484e-52
-2.6026240190532e-50
-2.3520872803724e-46
-1.5021638828135e-44
-4.7993653785933e-43
-1.021482789086e-41
-1.6290605180586e-40
-2.0764282774916e-39
-2.2034115416903e-38
-2.0021932668062e-37
-1.5903804522145e-36
-1.1218065762805e-35
-7.1145858241423e-35
-4.0978737122998e-34
-2.1614587423158e-33
-1.0513309671791e-32
-4.7436429379577e-32
-1.9956514800352e-31
-7.8630477453662e-31
-2.9129252141298e-30
-1.0181323465823e-29
-3.367882502297e-29
-1.0572818465885e-28
-3.1578481610529e-28
-8.9937802121399e-28
-2.4475955635426e-27
-6.3767912378727e-27
-1.593239191299e-26
-3.8235539105202e-26
-8.8267112610668e-26
-1.962757260007e-25
-4.2093801518093e-25
-8.716922354658e-25
-1.7449245927517e-24
-3.3798876285538e-24
-6.3409625210338e-24
-1.1532535017871e-23
-2.0350581117988e-23
-3.4870287710531e-23
-5.8061132493908e-23
-9.4009838098866e-23
-1.4811840395157e-22
-2.2723102633285e-22
-3.3963326867811e-22
-4.9486321416812e-22
-7.0328139093087e-22
-9.753668070198e-22
-1.3207410355568e-21
-1.7469683529687e-21
-2.2582313514428e-21
-2.8540291362485e-21
-3.5280785854834e-21
-4.2676083096739e-21
-5.0532132268413e-21
-5.8593837419543e-21
-6.6557425600779e-21
-7.4089255397595e-21
-8.0849464490026e-21
-8.6518061074368e-21
-9.082059068073e-21
-9.3550451725561e-21
-9.4585309556956e-21
-9.3895809659525e-21
-9.1545789151151e-21
-8.7684264712655e-21
-8.2530461500375e-21
-7.6353895253138e-21
-6.9451934623119e-21
-6.2127322988437e-21
-5.4667861535076e-21
-4.7329930111558e-21
-4.03268590264e-21
-3.3822478070743e-21
-2.7929557632421e-21
-2.271239060409e-21
-1.8192477526777e-21
-1.4356172105663e-21
-1.1163194421533e-21
-8.55508289323e-22
-6.4628853505107e-22
-4.8136393144701e-22
-3.5354255475443e-22
-2.5609728485619e-22
-1.8299338200098e-22
-1.2900392200178e-22
-8.9737836473377e-23
-6.1605508961901e-23
-4.1744479721435e-23
-2.7923932526773e-23
-1.844220595083e-23
-1.2027267361153e-23
-2.0615458556903e-23
0
0
0
0
0
-1.4746547890444e-56
-9.5896959754651e-55
-3.1141833486948e-53
-7.0393022686969e-51
-3.9916445366963e-49
-9.2963038059082e-46
-5.8896518283427e-44
-1.8759973237003e-42
-3.9848744656212e-41
-6.3452589081836e-40
-8.0775826297791e-39
-8.5627030816279e-38
-7.7742291461653e-37
-6.1711233976379e-36
-4.3507136803012e-35
-2.7582340724641e-34
-1.5882956091645e-33
-8.3763816596892e-33
-4.0740374635838e-32
-1.8382624549959e-31
-7.734273288557e-31
-3.0478290009931e-30
-1.1293187690282e-29
-3.9482031107928e-29
-1.3064093979295e-28
-4.1025936497656e-28
-1.2258074954887e-27
-3.4926464041284e-27
-9.5093691909669e-27
-2.4787506993718e-26
-6.1965460416661e-26
-1.4879690379913e-25
-3.4371919882077e-25
-7.648387513216e-25
-1.6414956217444e-24
-3.4019044835008e-24
-6.8153903921597e-24
-1.3212573768764e-23
-2.4809900141473e-23
-4.5163742779757e-23
-7.9770892631567e-23
-1.3681347403932e-22
-2.2801495542134e-22
-3.695299120813e-22
-5.8273703933809e-22
-8.9475062756626e-22
-1.3384228788598e-21
-1.9515938251252e-21
-2.7753731132765e-21
-3.851320264724e-21
-5.2175298685467e-21
-6.9038152248195e-21
-8.9263933883381e-21
-1.128266908479e-20
-1.3946850872852e-20
-1.6867169311575e-20
-1.9965376157034e-20
-2.3138980450066e-20
-2.6266343575179e-20
-2.9214358601785e-20
-3.1848045153774e-20
-3.4041070606812e-20
-3.568602274502e-20
-3.6703246070438e-20
-3.7047219941845e-20
-3.6709774552564e-20
-3.5719855949834e-20
-3.4139993566738e-20
-3.2060021457714e-20
-2.9588898458777e-20
-2.6845626316035e-20
-2.3950269124015e-20
-2.101594870829e-20
-1.8142464961434e-20
-1.5411914083685e-20
-1.288639835175e-20
-1.0607678072471e-20
-8.5984365540761e-21
-6.8647242341377e-21
-5.3991168450186e-21
-4.1841525803268e-21
-3.1956864911565e-21
-2.4058968895287e-21
-1.7857802512826e-21
-1.3070639513216e-21
-9.4354116163366e-22
-6.7188538822506e-22
-4.7203349634318e-22
-3.2723858831867e-22
-2.2389220125916e-22
-1.5120384159704e-22
-1.0080932964567e-22
-6.6361372975644e-23
-4.3138747672309e-23
-7.3353705102441e-23
0
0
0
0
0
-1.2026566774161e-55
-7.8118120491947e-54
-2.533894316914e-52
-7.1330784143287e-50
-4.1004068619417e-48
-3.3115827155536e-45
-2.0598539614361e-43
-6.5241885605045e-42
-1.3817041244419e-40
-2.1958433282465e-39
-2.7914866698294e-38
-2.9562770655537e-37
-2.6823394341696e-36
-2.1284406938301e-35
-1.5003728181765e-34
-9.5125207430158e-34
-5.4788787860254e-33
-2.890478420798e-32
-1.4064903050158e-31
-6.3497004823629e-31
-2.6731688143328e-30
-1.0540930841017e-29
-3.9084223611583e-29
-1.3673896182843e-28
-4.5278155653314e-28
-1.4229579526479e-27
-4.2548785867853e-27
-1.2132732065739e-26
-3.3060067383612e-26
-8.6246906693752e-26
-2.1579012459488e-25
-5.1863470771959e-25
-1.1991508455851e-24
-2.6709177360364e-24
-5.7381318627405e-24
-1.1904561936202e-23
-2.3876079330936e-23
-4.6340479155569e-23
-8.7119897629006e-23
-1.5878799955346e-22
-2.8081524594235e-22
-4.822394479946e-22
-8.0474689104188e-22
-1.3058906511277e-21
-2.0619791738179e-21
-3.1699682074404e-21
-4.7475284023421e-21
-6.9303973725622e-21
-9.866218416898e-21
-1.3704363503828e-20
-1.8581747778113e-20
-2.4605330759011e-20
-3.1832774763672e-20
-4.0253455263431e-20
-4.9772526694959e-20
-6.0200885880815e-20
-7.1253538295621e-20
-8.2558038888728e-20
-9.3673431192195e-20
-1.0411862670816e-19
-1.1340770051515e-19
-1.2108839728003e-19
-1.2677947443628e-19
-1.3020249600741e-19
-1.3120434882577e-19
-1.2976797317289e-19
-1.2601036963184e-19
-1.2016859372803e-19
-1.1257590952704e-19
-1.0363132450306e-19
-9.3766241899098e-20
-8.341191949694e-20
-7.2970888379673e-20
-6.2794606171594e-20
-5.3168575486357e-20
-4.4305126627001e-20
-3.6343187973918e-20
-2.9353740723948e-20
-2.3349312810249e-20
-1.8295795432243e-20
-1.4125013280228e-20
-1.07467749955e-20
-8.0594987722901e-21
-5.9588834166385e-21
-4.344428520889e-21
-3.1238691218527e-21
-2.2157690308618e-21
-1.5506161942801e-21
-1.0707957482928e-21
-7.2979932646202e-22
-4.9098078211205e-22
-3.2610482281155e-22
-2.1386855264924e-22
-1.385149878352e-22
-2.3340283707699e-22
0
0
0
0
0
-7.8372121768817e-55
-5.0847270774309e-53
-1.6474104728372e-51
-5.4592542302667e-49
-3.1628134366043e-47
-1.0906757293056e-44
-6.5367860702324e-43
-2.0485416678039e-41
-4.3171511165902e-40
-6.841651881246e-39
-8.682541285042e-38
-9.1857958904912e-37
-8.3305659901594e-36
-6.6098493187666e-35
-4.6606117570576e-34
-2.9564356058763e-33
-1.70405563009e-32
-8.9980693704809e-32
-4.3828149340137e-31
-1.9807949446925e-30
-8.3483818545731e-30
-3.2957451678429e-29
-1.2234209012255e-28
-4.2851073924551e-28
-1.4205119228047e-27
-4.4691502691362e-27
-1.3377863621941e-26
-3.8187057665752e-26
-1.0416289804794e-25
-2.7202047053064e-25
-6.8130131814667e-25
-1.639169545083e-24
-3.7940234596557e-24
-8.4598739560749e-24
-1.8195667395497e-23
-3.779417146204e-23
-7.5894508616065e-23
-1.4749147136748e-22
-2.7765527639667e-22
-5.0676943386594e-22
-8.9750561631719e-22
-1.54354399448e-21
-2.5796851835453e-21
-4.1924796430825e-21
-6.6298577255676e-21
-1.0207569869866e-20
-1.5309692033788e-20
-2.2380211655774e-20
-3.1902989091041e-20
-4.4368348525748e-20
-6.0226242386541e-20
-7.9828242234789e-20
-1.0336323542178e-19
-1.3079417978394e-19
-1.6180502365424e-19
-1.9576739710785e-19
-2.3173555154468e-19
-2.6847518873103e-19
-3.0452755767491e-19
-3.3830513408223e-19
-3.6821019955533e-19
-3.9276363900584e-19
-4.1072906925375e-19
-4.2121747332212e-19
-4.2375988530794e-19
-4.1833994747326e-19
-4.0538358720236e-19
-3.8570869141783e-19
-3.604425565804e-19
-3.3091832627167e-19
-2.9856318134665e-19
-2.6479067488296e-19
-2.3090759490114e-19
-1.9804261712122e-19
-1.6710040783929e-19
-1.3874135814274e-19
-1.1338425245562e-19
-9.1227188115636e-20
-7.2281061781621e-20
-5.6409845736944e-20
-4.3372496606315e-20
-3.2862416511773e-20
-2.454166552522e-20
-1.8068386449328e-20
-1.311699263856e-20
-9.3914993364266e-21
-6.6329229298098e-21
-4.6219513191414e-21
-3.1781519240739e-21
-2.1568937057944e-21
-1.44497738006e-21
-9.5574601974471e-22
-6.2422559379403e-22
-4.0264688556811e-22
-6.7173926796624e-22
0
0
0
0
0
-4.2508763463537e-54
-2.7547372216365e-52
-8.9147959391381e-51
-3.3526137908198e-48
-1.9516811309167e-46
-3.4088810996392e-44
-1.9141161152354e-42
-5.8863426090972e-41
-1.2302807910221e-39
-1.9411792511773e-38
-2.4574740743162e-37
-2.596630585228e-36
-2.3538418731804e-35
-1.8679726280455e-34
-1.3179574131579e-33
-8.3687451200787e-33
-4.8297246443147e-32
-2.553956519572e-31
-1.2459276722203e-30
-5.6400219912304e-30
-2.3809588286656e-29
-9.4146284356491e-29
-3.5003057898704e-28
-1.2278499030167e-27
-4.0761523514721e-27
-1.2841600820674e-26
-3.848903034506e-26
-1.0999989004099e-25
-3.0039239181059e-25
-7.853379830391e-25
-1.9690599099322e-24
-4.7424259922759e-24
-1.0988361108448e-23
-2.4527826229641e-23
-5.2812625939987e-23
-1.0982142834355e-22
-2.2079409941033e-22
-4.2961994014344e-22
-8.0982497288411e-22
-1.4800991904783e-21
-2.6250571543761e-21
-4.5213146333849e-21
-7.5678922416615e-21
-1.2318395908085e-20
-1.9510469504731e-20
-3.0085933797822e-20
-4.519327118795e-20
-6.6163289398652e-20
-9.4449544902331e-20
-1.3152794916817e-19
-1.7875511158196e-19
-2.3719207740945e-19
-3.0740828057851e-19
-3.8928828454661e-19
-4.8186944733464e-19
-5.8324030025061e-19
-6.9052597354729e-19
-7.9997816002455e-19
-9.071737562651e-19
-1.0073104490936e-18
-1.0955718858378e-18
-1.1675226526223e-18
-1.2194866008138e-18
-1.2488625799014e-18
-1.2543394298609e-18
-1.2359858073573e-18
-1.1952075988965e-18
-1.1345832738046e-18
-1.057602598837e-18
-9.6834439564906e-19
-8.7113325906339e-19
-7.7021334476017e-19
-6.6947050679566e-19
-5.7222395869141e-19
-4.8109727008829e-19
-3.9796778501516e-19
-3.2398490169372e-19
-2.5964191744805e-19
-2.048835156545e-19
-1.592311298468e-19
-1.2191069039851e-19
-9.1970817729134e-20
-6.8383570554515e-20
-5.0123730659969e-20
-3.6225857357773e-20
-2.5820743264003e-20
-1.8154404363423e-20
-1.2593434037297e-20
-8.6206144498717e-21
-5.8243090296246e-21
-3.8845459982645e-21
-2.5580004816913e-21
-1.6634034878643e-21
-1.0683183948707e-21
-1.7635201825384e-21
0
0
0
0
0
-1.973904652826e-53
-1.2776826831828e-51
-4.1300055113955e-50
-1.7178716427788e-47
-1.0030914193268e-45
-1.0337278597178e-43
-5.2595214935439e-42
-1.568130239177e-40
-3.2335763270179e-39
-5.0668359127681e-38
-6.3906317836043e-37
-6.7401229001845e-36
-6.1063638686069e-35
-4.8474234722116e-34
-3.4234070320207e-33
-2.1768924651062e-32
-1.258515792703e-31
-6.668048791436e-31
-3.2596798869211e-30
-1.4786806221365e-29
-6.2552618471084e-29
-2.4783676396442e-28
-9.2319271566225e-28
-3.2441527606956e-27
-1.0787404634883e-26
-3.4035794310034e-26
-1.0215160403966e-25
-2.9230584499777e-25
-7.9914012780124e-25
-2.0914084456417e-24
-5.2487728802806e-24
-1.2653012023311e-23
-2.9343271662175e-23
-6.5556288753006e-23
-1.4127955620976e-22
-2.9405575658684e-22
-5.9176979237948e-22
-1.1526554802976e-21
-2.1751367585685e-21
-3.9801428541498e-21
-7.0679052259912e-21
-1.2189616814776e-20
-2.0431422328967e-20
-3.3303905778918e-20
-5.282478239429e-20
-8.1576601026323e-20
-1.2271617428947e-19
-1.7990988051422e-19
-2.5717079022891e-19
-3.5858131090443e-19
-4.8789936170344e-19
-6.4806617703735e-19
-8.4065713120473e-19
-1.0653392861583e-18
-1.3194155230112e-18
-1.5975400932848e-18
-1.891680665619e-18
-2.1913765888025e-18
-2.4843046725095e-18
-2.7571181101393e-18
-2.9964793231964e-18
-3.1901721749004e-18
-3.3281604802374e-18
-3.4034622086476e-18
-3.4127322664433e-18
-3.3564871091275e-18
-3.2389542909133e-18
-3.0675804771988e-18
-2.852273880946e-18
-2.6044850988825e-18
-2.3362406925911e-18
-2.0592368610515e-18
-1.7840794789717e-18
-1.5197268888342e-18
-1.2731590676192e-18
-1.0492665409119e-18
-8.50928672382e-19
-6.7923585641717e-19
-5.3380399857005e-19
-4.1313132413159e-19
-3.1495492648874e-19
-2.365751251885e-19
-1.7512736440564e-19
-1.2779223658157e-19
-9.1943083338831e-20
-6.5236956006124e-20
-4.5658484126323e-20
-3.1527738123287e-20
-2.1483012857445e-20
-1.4448184525465e-20
-9.5924354783891e-21
-6.2881215491862e-21
-4.0706657417614e-21
-2.6027688367263e-21
-4.2500736914911e-21
0
0
0
0
0
-8.0104876497445e-53
-5.1790516610194e-51
-1.6721431526921e-49
-7.5474479781988e-47
-4.4156198493703e-45
-3.0776864627354e-43
-1.3777420013751e-41
-3.9227625297233e-40
-7.9227668365118e-39
-1.2282572100841e-37
-1.5403125915397e-36
-1.6199126352291e-35
-1.4661187761778e-34
-1.1641559144019e-33
-8.2310930376673e-33
-5.2432401108672e-32
-3.0377937498601e-31
-1.613377865224e-30
-7.9066790006014e-30
-3.5956339545331e-29
-1.5247385396537e-28
-6.0549022062753e-28
-2.2602245507412e-27
-7.9578295553498e-27
-2.6506724985816e-26
-8.375912716154e-26
-2.5171743275267e-25
-7.2110475612695e-25
-1.97335834597e-24
-5.168728021047e-24
-1.2981221375959e-23
-3.1313244827154e-23
-7.2659945394936e-23
-1.6242081322432e-22
-3.5022537443337e-22
-7.2937319496376e-22
-1.4687395449268e-21
-2.8627987266538e-21
-5.4064207828737e-21
-9.9012402171563e-21
-1.7598906203352e-20
-3.0382520747415e-20
-5.0980277006671e-20
-8.3194388851997e-20
-1.3211437627419e-19
-2.0426840308832e-19
-3.076528481039e-19
-4.5157305878219e-19
-6.4623223542818e-19
-9.0202484300666e-19
-1.2285277563859e-18
-1.6332346101422e-18
-2.1201399501769e-18
-2.6883387463028e-18
-3.3308498579317e-18
-4.0338856237841e-18
-4.7767642361356e-18
-5.5325945490608e-18
-6.2697612031339e-18
-6.9541170467055e-18
-7.5516715778611e-18
-8.0314718306165e-18
-8.3683252188766e-18
-8.5450231791001e-18
-8.5537895586959e-18
-8.3967868479807e-18
-8.0856462837505e-18
-7.6401204332251e-18
-7.0860664199359e-18
-6.4530378486624e-18
-5.7717859723964e-18
-5.0719474179798e-18
-4.3801364606652e-18
-3.7185789468498e-18
-3.1043384258996e-18
-2.5491069559329e-18
-2.0594734181218e-18
-1.63754598368e-18
-1.2817927615893e-18
-9.8797199318499e-19
-7.500446058514e-19
-5.6099097187317e-19
-4.1348440754259e-19
-3.0040175496842e-19
-2.1517350213852e-19
-1.5199115916759e-19
-1.0589818960079e-19
-7.2793742101704e-20
-4.9377217998564e-20
-3.3057887246616e-20
-2.184868808522e-20
-1.4258056554557e-20
-9.1888232075038e-21
-5.8492600562255e-21
-9.4483974235695e-21
0
0
0
0
0
-2.8861283571101e-52
-1.8638055485149e-50
-6.0106094064766e-49
-2.901000015972e-46
-1.6992407078856e-44
-8.9845091965257e-43
-3.4844838177939e-41
-9.3263720623796e-40
-1.8284015547371e-38
-2.7902694094735e-37
-3.4692083044922e-36
-3.6322727741586e-35
-3.2814550991583e-34