/*--------------------------------*- C++ -*----------------------------------*\
| =========                 |                                                 |
| \\      /  F ield         | OpenFOAM: The Open Source CFD Toolbox           |
|  \\    /   O peration     | Version:  v1812                                 |
|   \\  /    A nd           | Web:      www.OpenFOAM.com                      |
|    \\/     M anipulation  |                                                 |
\*---------------------------------------------------------------------------*/
FoamFile
{
    version     2.0;
    format      ascii;
    class       volScalarField;
    location    "2";
    object      alpha.water;
}
// * * * * * * * * * * * * * * * * * * * * * * * * * * * * * * * * * * * * * //

dimensions      [0 0 0 0 0 0 0];


internalField   nonuniform List<scalar> 
6000
(
0
0
0
0
0
0
0
0
0
0
0
0
0
0
0
0
0
0
0
0
0
0
0
0
0
0
0
0
0
0
0
0
0
0
0
0
0
0
0
0
0
0
0
0
0
0
0
0
0
0
0
0
0
0
0
0
0
0
0
0
0
0
0
0
0
0
0
0
0
0
0
0
0
0
0
0
0
0
0
0
0
0
0
0
0
0
0
0
0
0
0
0
0
0
0
0
0
0
0
0
0
0
0
0
0
0
0
0
0
0
0
0
0
0
0
0
0
0
0
0
0
0
0
0
0
0
0
0
0
0
0
0
0
0
0
0
0
0
0
0
0
0
0
0
0
0
0
0
0
0
0
0
0
0
0
0
0
0
0
0
0
0
0
0
0
0
0
0
0
0
0
0
0
0
0
0
0
0
0
0
0
0
0
0
0
0
0
0
0
0
0
0
0
0
0
0
0
0
0
0
0
0
0
0
0
0
0
0
0
0
0
0
0
0
0
0
0
0
0
0
0
0
0
0
0
0
0
0
0
0
0
0
0
0
0
0
0
0
0
0
0
0
0
0
0
0
0
0
0
0
0
0
0
0
0
0
0
0
0
0
0
0
0
0
0
0
0
0
0
0
0
0
0
0
0
0
0
0
0
0
0
0
0
0
0
0
0
0
0
0
0
0
0
0
0
0
0
0
0
0
0
0
0
0
0
0
0
0
0
0
0
0
0
0
0
0
0
0
0
0
0
0
0
0
0
0
0
0
0
0
0
0
0
0
0
0
0
0
0
0
0
0
0
0
0
0
0
0
0
0
0
0
0
0
0
0
0
0
0
0
0
0
0
0
0
0
0
0
0
0
0
0
0
0
0
0
0
0
0
0
0
0
0
0
0
0
0
0
0
0
0
0
0
0
0
0
0
0
0
0
0
0
0
0
0
0
0
0
0
0
0
0
0
0
0
0
0
0
0
0
0
0
0
0
0
0
0
0
0
0
0
0
0
0
0
0
0
0
0
0
0
0
0
0
0
0
0
0
0
0
0
0
0
0
0
0
0
0
0
0
0
0
0
0
0
0
0
0
0
0
0
0
0
0
0
0
0
0
0
0
0
0
0
0
0
0
0
0
0
0
0
0
0
0
0
0
0
0
0
0
0
0
0
0
0
0
0
-3.5410574044191e-54
9.0219829188349e-52
4.2124471056101e-50
-2.0512853404324e-39
-8.7013986072801e-38
-1.8422150409285e-36
-2.5954788312556e-35
-2.737612512333e-34
-2.3058517661343e-33
-1.6155609638648e-32
-9.6845889523318e-32
-5.0705912584984e-31
-2.3555582614838e-30
-9.8306175015434e-30
-3.7229146286224e-29
-1.290041336747e-28
-4.1187715796745e-28
-1.2188535887791e-27
-3.3602792867894e-27
-8.6690696320306e-27
-2.1010744745119e-26
-4.8004987348196e-26
-1.0371664820003e-25
-2.1248644756983e-25
-4.138285808761e-25
-7.6789325740296e-25
-1.3604084053672e-24
-2.3054000722939e-24
-3.7435633478441e-24
-5.834183499241e-24
-8.7392187380541e-24
-1.2599624220762e-23
-1.7506043698711e-23
-2.3468170362416e-23
-3.0388743297524e-23
-3.8048657524947e-23
-4.6108605779321e-23
-5.4130036035659e-23
-6.1614480692003e-23
-6.8056358725682e-23
-7.3001185042818e-23
-7.6099595844374e-23
-7.714814485623e-23
-7.6110317775445e-23
-7.3115018358231e-23
-6.8433959128336e-23
-6.2442975077662e-23
-5.5574537456677e-23
-4.8269345420141e-23
-4.0933917108835e-23
-3.3909030404623e-23
-2.7451291437786e-23
-2.1727641539509e-23
-1.682070610288e-23
-1.2741775285099e-23
-9.4478990474273e-24
-6.8599233006281e-24
-4.8790481629594e-24
-3.4004016089816e-24
-2.3229862564265e-24
-1.5560421370678e-24
-1.0223191408412e-24
-6.5897603103e-25
-4.1686357142826e-25
-2.5886810977499e-25
-1.5784782043518e-25
-9.4533439822246e-26
-5.561949037132e-26
-3.2156417520333e-26
-1.8272947776769e-26
-1.0208171518589e-26
-5.6076490237217e-27
-3.0296991455219e-27
-1.6102510262664e-27
-8.4207360116997e-28
-4.3336457634632e-28
-2.1952590135041e-28
-1.0947802672227e-28
-5.3759425132795e-29
-2.5998258440608e-29
-1.2384240522958e-29
-5.8116777776743e-30
-2.6872642598799e-30
-1.2245141064265e-30
-5.4995595273923e-31
-2.4348217749351e-31
-1.0627826254593e-31
-4.5742616416382e-32
-1.9415860065654e-32
-8.1284863181179e-33
-3.3568897694943e-33
-1.3677112777967e-33
-9.0649061366258e-34
0
0
0
0
0
0
2.7065362879335e-53
1.1530370359225e-51
4.6911846121917e-50
1.3093089114585e-48
-4.2089410663216e-38
-1.7813123563156e-36
-3.7626727911389e-35
-5.2890728999371e-34
-5.5659688036627e-33
-4.6774342836356e-32
-3.2697005488184e-31
-1.9555772063047e-30
-1.0215564849693e-29
-4.7348753555959e-29
-1.9715481431255e-28
-7.449422181402e-28
-2.5754739792722e-27
-8.2042042050067e-27
-2.4223493427607e-26
-6.663132404745e-26
-1.7151212659288e-25
-4.1474827325977e-25
-9.4547906049514e-25
-2.0381594103999e-24
-4.1662643470676e-24
-8.0958761557756e-24
-1.4989045450667e-23
-2.6495627962144e-23
-4.4800732855402e-23
-7.2587209096498e-23
-1.1287385371102e-22
-1.6870445823265e-22
-2.4269152474598e-22
-3.3645774935905e-22
-4.5005932283667e-22
-5.815054814997e-22
-7.2649651115401e-22
-8.7848009205632e-22
-1.0290740711043e-21
-1.1688322076072e-21
-1.2882550035477e-21
-1.3788896074753e-21
-1.4343367175018e-21
-1.4509957953217e-21
-1.4284295520536e-21
-1.3693019556267e-21
-1.2789228733885e-21
-1.1644987457981e-21
-1.0342290274453e-21
-8.9639692606197e-22
-7.5858275742695e-22
-6.2708778795e-22
-5.0660751353026e-22
-4.0014724795843e-22
-3.0913797286346e-22
-2.3369068365985e-22
-1.7292286389104e-22
-1.2529810276559e-22
-8.8934586104599e-23
-6.1855507750763e-23
-4.2170578396378e-23
-2.8190393491629e-23
-1.8483541822319e-23
-1.1890201764147e-23
-7.5064807271055e-24
-4.6520637322508e-24
-2.8309496750842e-24
-1.6920266072829e-24
-9.9352440361167e-25
-5.7325858292184e-25
-3.251055513915e-25
-1.8125834668406e-25
-9.9372566337834e-26
-5.3582389808603e-26
-2.8421974379424e-26
-1.483371428953e-26
-7.6189215577157e-27
-3.8518295415595e-27
-1.917124569968e-27
-9.3955212183138e-28
-4.5347582444065e-28
-2.1558748022471e-28
-1.0097190290653e-28
-4.6596655824788e-29
-2.1191122098562e-29
-9.4987008703629e-30
-4.1971056800349e-30
-1.8284109114866e-30
-7.8541126597245e-31
-3.3272052062984e-31
-1.3902069460067e-31
-5.7299865019566e-32
-2.3300086990059e-32
-1.5393128773503e-32
0
0
0
0
0
1.6562869374441e-54
4.7968537633004e-52
1.9832519157111e-50
6.695151857462e-49
1.6556702922495e-47
-4.3077156856164e-37
-1.8188923235186e-35
-3.8331472949708e-34
-5.3756401874683e-33
-5.6439409165047e-32
-4.7319478607235e-31
-3.3001249027295e-30
-1.9691879032627e-29
-1.0262758820787e-28
-4.7456935864936e-28
-1.9714597705388e-27
-7.4317763532655e-27
-2.5634036102337e-26
-8.1467895096092e-26
-2.399814161815e-25
-6.5858350204085e-25
-1.6912964832358e-24
-4.080403707528e-24
-9.2803723102117e-24
-1.9959426485871e-23
-4.0705662362431e-23
-7.8917224453477e-23
-1.457752822076e-22
-2.5709184236165e-22
-4.337162830486e-22
-7.0111581260213e-22
-1.0877641720293e-21
-1.6221182725354e-21
-2.3282418467998e-21
-3.2205098621061e-21
-4.2982106097216e-21
-5.5411371428474e-21
-6.9073140505284e-21
-8.3337735212371e-21
-9.7407882989244e-21
-1.1039286578722e-20
-1.2140477646725e-20
-1.296618794352e-20
-1.3458189163901e-20
-1.3584955326425e-20
-1.3344776537926e-20
-1.2764858564306e-20
-1.1896776833034e-20
-1.0809261929284e-20
-9.5796502039601e-21
-8.285391455817e-21
-6.9967955636671e-21
-5.7718078325082e-21
-4.6531404192106e-21
-3.6676596997611e-21
-2.8276119849724e-21
-2.1330971902664e-21
-1.575168077359e-21
-1.1390101344722e-21
-8.0679961528833e-22
-5.600005756862e-22
-3.8101131038686e-22
-2.5418544327663e-22
-1.6632551437497e-22
-1.0677998648292e-22
-6.7277009286631e-23
-4.1611007186146e-23
-2.5271410616871e-23
-1.5074456775992e-23
-8.8338992623932e-24
-5.0870505229697e-24
-2.8792773469707e-24
-1.6021482286564e-24
-8.7663452643548e-25
-4.7176230754899e-25
-2.49750342102e-25
-1.30092999936e-25
-6.6688517245168e-26
-3.3649562172693e-26
-1.671547177265e-26
-8.1760995205394e-27
-3.938558926135e-27
-1.8688114494793e-27
-8.7357852809825e-28
-4.0236132946142e-28
-1.8263164370886e-28
-8.170474649418e-29
-3.6032491758356e-29
-1.5666779428081e-29
-6.7168354186752e-30
-2.8399379598071e-30
-1.1843234910825e-30
-4.8719852123276e-31
-1.977293506309e-31
-1.3021659360546e-31
0
0
0
0
0
3.6337739013715e-53
1.3510232449166e-51
3.8640250314182e-50
2.5999458028905e-48
8.8731739196016e-47
-2.9321418873709e-36
-1.2351665553229e-34
-2.5968845206713e-33
-3.6333225928614e-32
-3.8056684015181e-31
-3.1831945523038e-30
-2.2147900774752e-29
-1.3184948864672e-28
-6.8558527584279e-28
-3.163202086346e-27
-1.3112181692023e-26
-4.9325798709059e-26
-1.6979724670046e-25
-5.3860598044755e-25
-1.5836947169762e-24
-4.3385998668241e-24
-1.1123338959808e-23
-2.6793033040548e-23
-6.084264813121e-23
-1.3065583933828e-22
-2.6606084484147e-22
-5.150434877372e-22
-9.4993980181554e-22
-1.6727412202937e-21
-2.8174569866248e-21
-4.5470598138632e-21
-7.0427037596999e-21
-1.0483888686223e-20
-1.502008816759e-20
-2.0736786832827e-20
-2.76213105132e-20
-3.553551703022e-20
-4.4202636284358e-20
-5.3213912538062e-20
-6.2057331870719e-20
-7.0166289159286e-20
-7.6981633285055e-20
-8.2017285222535e-20
-8.491844010427e-20
-8.550258301675e-20
-8.3776863118364e-20
-7.9929934021758e-20
-7.4301058401389e-20
-6.7333025231343e-20
-5.9517509597906e-20
-5.134167633228e-20
-4.3243329445043e-20
-3.5579322284199e-20
-2.8608988929273e-20
-2.2491692570665e-20
-1.7295663478131e-20
-1.3014307608521e-20
-9.5860569833824e-21
-6.9143893780924e-21
-4.8855802373296e-21
-3.3827874979949e-21
-2.2959993771696e-21
-1.5280737082149e-21
-9.9752637308195e-22
-6.3890955677865e-22
-4.0161712249343e-22
-2.4783440730762e-22
-1.5017658544799e-22
-8.9380955477421e-23
-5.2263342356389e-23
-3.0030504147377e-23
-1.6960626003558e-23
-9.4174294612286e-24
-5.1419585295988e-24
-2.7613538782733e-24
-1.458820166401e-24
-7.5832249474468e-25
-3.8793808718138e-25
-1.9534784978695e-25
-9.6843781947733e-26
-4.7274692392156e-26
-2.272764445015e-26
-1.0762712930126e-26
-5.0211320341755e-27
-2.3081454159929e-27
-1.0456193989477e-27
-4.6687285314091e-28
-2.0549538263543e-28
-8.9175655021416e-29
-3.8158574813039e-29
-1.6102707510017e-29
-6.7023094943263e-30
-2.7518539669173e-30
-1.1146969237412e-30
-7.3179629164191e-31
0
0
0
0
0
2.7804146214379e-52
-4.1471028318095e-50
-1.8889239387402e-48
-2.9951343973469e-47
-1.2966861481025e-46
-1.493264714772e-35
-6.2754544857781e-34
-1.3162450893363e-32
-1.8372919930472e-31
-1.9201394946765e-30
-1.6026393300544e-29
-1.1128170027785e-28
-6.612131118539e-28
-3.4320686696847e-27
-1.5809542002379e-26
-6.5439178045494e-26
-2.458585737449e-25
-8.4541826720774e-25
-2.6793224844721e-24
-7.8726482964977e-24
-2.1556331226631e-23
-5.524743358026e-23
-1.3305152668208e-22
-3.0212604976261e-22
-6.4884652436465e-22
-1.3214986036387e-21
-2.5587564101098e-21
-4.7205587444843e-21
-8.3145156718401e-21
-1.4007488858265e-20
-2.2609853705553e-20
-3.5020770275596e-20
-5.2127812420621e-20
-7.4663723255667e-20
-1.0303549124972e-19
-1.3715337780662e-19
-1.7629601943843e-19
-2.1904859204398e-19
-2.6334226396064e-19
-3.0660550743533e-19
-3.460149183288e-19
-3.7881068197253e-19
-4.0262575320673e-19
-4.1577268880825e-19
-4.1743940941569e-19
-4.0776308170071e-19
-3.8777514337554e-19
-3.5923431526893e-19
-3.2438281814105e-19
-2.856704246497e-19
-2.4549053604442e-19
-2.0596375146043e-19
-1.6879061835695e-19
-1.3518017674934e-19
-1.0584780827412e-19
-8.1066883149087e-20
-6.0754497664797e-20
-4.4571755191541e-20
-3.2022343666637e-20
-2.2538104499788e-20
-1.5545504018079e-20
-1.0511419695573e-20
-6.9699101285614e-21
-4.533531947798e-21
-2.8934703700028e-21
-1.8125850224103e-21
-1.1147926845033e-21
-6.7331938176617e-22
-3.9947544252083e-22
-2.3286687721591e-22
-1.3340648935379e-22
-7.5127198876688e-23
-4.159723882119e-23
-2.2650186906876e-23
-1.2131346204032e-23
-6.3923899056968e-24
-3.3145078352758e-24
-1.6914467992303e-24
-8.4969041798848e-25
-4.2024592523745e-25
-2.0467363062867e-25
-9.8176829629779e-26
-4.6389108859e-26
-2.1594954860364e-26
-9.905704464451e-27
-4.4779689331964e-27
-1.995279059644e-27
-8.7642694215845e-28
-3.7955825514165e-28
-1.6208823709604e-28
-6.8264227740363e-29
-2.835700955153e-29
-1.1620073600205e-29
-4.69778249344e-30
-3.074345909125e-30
0
0
0
0
0
-1.3503017698883e-46
-5.8112801850034e-45
-1.2479556740212e-43
-1.7828883924615e-42
-1.9062222891499e-41
-6.0691800684994e-35
-2.5444384759407e-33
-5.32394016986e-32
-7.4151216747784e-31
-7.7348304894746e-30
-6.4457940924604e-29
-4.470218796713e-28
-2.6536576702661e-27
-1.3765222809446e-26
-6.338524179785e-26
-2.6233723297588e-25
-9.8575271704685e-25
-3.3909340979225e-24
-1.0753280212287e-23
-3.1623329243507e-23
-8.668306920993e-23
-2.2245634605464e-22
-5.3656629349086e-22
-1.2205475510714e-21
-2.6263661179159e-21
-5.3604182078542e-21
-1.0402463625732e-20
-1.9235964174477e-20
-3.396153332164e-20
-5.7349962007123e-20
-9.2781333653908e-20
-1.4401912494927e-19
-2.1478873430785e-19
-3.0817000899586e-19
-4.2586750005075e-19
-5.6747739156287e-19
-7.2990861430531e-19
-9.0712061587998e-19
-1.0903020545441e-18
-1.2685361929505e-18
-1.4298963957458e-18
-1.5628148807784e-18
-1.6574974540023e-18
-1.7071367902613e-18
-1.7087132694968e-18
-1.6632557827969e-18
-1.5755430249687e-18
-1.4533310467731e-18
-1.3062708193106e-18
-1.1447154880305e-18
-9.7860852720217e-19
-8.165999575141e-19
-6.654738540375e-19
-5.299037667762e-19
-4.1249751248936e-19
-3.1405735617332e-19
-2.3396781793013e-19
-1.7062804602294e-19
-1.2186278379923e-19
-8.5268626020782e-20
-5.8474720735987e-20
-3.9315463276642e-20
-2.5925271788591e-20
-1.677217039678e-20
-1.0648684034847e-20
-6.6369987701109e-21
-4.0619922783323e-21
-2.4418267447777e-21
-1.4421504834225e-21
-8.3701448502813e-22
-4.7751183328812e-22
-2.6783167699507e-22
-1.4772714833661e-22
-8.0143730682347e-23
-4.2773677810647e-23
-2.2462870667485e-23
-1.1609579761844e-23
-5.9062065038909e-24
-2.9581316039413e-24
-1.4588702502531e-24
-7.0856161569436e-25
-3.3897670129737e-25
-1.5975740833152e-25
-7.4185158164135e-26
-3.3947064055575e-26
-1.5310147040309e-26
-6.8062794301916e-27
-2.9830009938297e-27
-1.2890472810407e-27
-5.4930489736481e-28
-2.308571869989e-28
-9.5700363368596e-29
-3.9136127529303e-29
-1.5790246394358e-29
-1.0300261688337e-29
0
0
0
0
0
-2.9204990746644e-45
-1.2545902936089e-43
-2.6893274123686e-42
-7.4117985672542e-40
-2.7759395331176e-38
-2.0559745177423e-34
-8.5830018346845e-33
-1.7907207849459e-31
-2.4887646259822e-30
-2.5924990041862e-29
-2.1590874732823e-28
-1.4974125686546e-27
-8.8946048607399e-27
-4.6189042700857e-26
-2.1300049050744e-25
-8.8311324735067e-25
-3.3249763791163e-24
-1.1462669966039e-23
-3.6435518088096e-23
-1.0741817924999e-22
-2.9523070440103e-22
-7.5981027141141e-22
-1.8382265218657e-21
-4.1950063357516e-21
-9.0578307594015e-21
-1.855429957054e-20
-3.6144036798061e-20
-6.710149976168e-20
-1.1895051049074e-19
-2.0169263785544e-19
-3.2762888266625e-19
-5.1057484196861e-19
-7.643383808313e-19
-1.1004754742927e-18
-1.5255472744744e-18
-2.0383217638385e-18
-2.6275263443493e-18
-3.2707920990399e-18
-3.9352919018386e-18
-4.5802690355875e-18
-5.1612441424961e-18
-5.6352827954114e-18
-5.9664202132144e-18
-6.1302604878429e-18
-6.1169220967675e-18
-5.9318474727008e-18
-5.5944363374984e-18
-5.1348837187353e-18
-4.589903343263e-18
-3.9981384674205e-18
-3.396002234351e-18
-2.8144916021444e-18
-2.2772519773429e-18
-1.799905421469e-18
-1.3904484460213e-18
-1.0504042551758e-18
-7.7638058750667e-19
-5.6172025349655e-19
-3.9800968568518e-19
-2.7630362891501e-19
-1.8800983664765e-19
-1.2544338602424e-19
-8.2101499099398e-20
-5.2728380324836e-20
-3.3240918311433e-20
-2.057660510624e-20
-1.2510525136644e-20
-7.4730859529314e-21
-4.3869385901268e-21
-2.5314437725446e-21
-1.4362239637262e-21
-8.0134528332891e-22
-4.397970145727e-22
-2.374689411063e-22
-1.2617288817272e-22
-6.5979496167459e-23
-3.3963416687817e-23
-1.7212577748159e-23
-8.5897931048358e-24
-4.2217203192189e-24
-2.0437689212027e-24
-9.7470551226469e-25
-4.5801149931156e-25
-2.120807113256e-25
-9.6784743770674e-26
-4.3536291089746e-26
-1.9305960773501e-26
-8.4407778126715e-27
-3.6389756099115e-27
-1.5471593682798e-27
-6.4878808914725e-28
-2.6837025977413e-28
-1.0951674725019e-28
-4.409520924737e-29
-2.8669615298402e-29
0
0
0
0
0
-3.1524051190771e-44
-1.3518033011823e-42
-2.8926066777934e-41
-1.4467816047545e-38
-5.5034244102054e-37
-6.0305461125062e-34
-2.4852326108515e-32
-5.1591449461735e-31
-7.1515603588263e-30
-7.4428735905521e-29
-6.2018235038418e-28
-4.3085464357118e-27
-2.5659791597802e-26
-1.3368601085301e-25
-6.1877073177528e-25
-2.5755244924028e-24
-9.735837136625e-24
-3.3697671390538e-23
-1.0753267207696e-22
-3.18244829439e-22
-8.7798593501459e-22
-2.268114734657e-21
-5.508161542518e-21
-1.2619052780868e-20
-2.7356919995421e-20
-5.6275367518754e-20
-1.1011231871561e-19
-2.0537876488634e-19
-3.6585231254381e-19
-6.2347706251631e-19
-1.0180061391572e-18
-1.5946855093131e-18
-2.3994619246799e-18
-3.4716580621504e-18
-4.8347608597286e-18
-6.486765995442e-18
-8.3921648823611e-18
-1.0477874457996e-17
-1.2634997722967e-17
-1.4727249402909e-17
-1.6605398837949e-17
-1.8125567986723e-17
-1.9168130857026e-17
-1.96536423302e-17
-1.9552795917839e-17
-1.8888711407192e-17
-1.7731508287361e-17
-1.618667192204e-17
-1.4379780530467e-17
-1.2440528271851e-17
-1.048866665576e-17
-8.6236835993847e-18
-6.9190259843998e-18
-5.4207192102072e-18
-4.1495386076202e-18
-3.1055258084235e-18
-2.2736006875222e-18
-1.6292118496514e-18
-1.1432857411303e-18
-7.8607512871756e-19
-5.298000536507e-19
-3.5018183022613e-19
-2.2708699393256e-19
-1.4453726839436e-19
-9.0326874810928e-20
-5.5443853039727e-20
-3.343707923714e-20
-1.9818511892617e-20
-1.1547857215236e-20
-6.6165341391529e-21
-3.7287353344431e-21
-2.0672361535624e-21
-1.1277300957923e-21
-6.0546609777038e-22
-3.1997924003512e-22
-1.6648463400792e-22
-8.5293492135211e-23
-4.3034079705743e-23
-2.1385850032966e-23
-1.046930417129e-23
-5.0494513131532e-24
-2.3997255564508e-24
-1.1238915297e-24
-5.1878306306662e-25
-2.3604663099512e-25
-1.0587942963456e-25
-4.6824970252636e-26
-2.0419506259996e-26
-8.78140175682e-27
-3.724619086782e-27
-1.5582864680221e-27
-6.4314318298923e-28
-2.6188463462788e-28
-1.0522063150301e-28
-6.8184278667964e-29
0
0
0
0
0
-2.2642571866516e-43
-9.6923074730966e-42
-2.0703293355476e-40
-1.4323629639553e-37
-5.4703100576862e-36
-1.5994436376483e-33
-6.3526132686203e-32
-1.3042148759554e-30
-1.79975222681e-29
-1.8713128261687e-28
-1.5618369117084e-27
-1.0888900422173e-26
-6.5165106853316e-26
-3.4143023134599e-25
-1.589846047585e-24
-6.6574513063729e-24
-2.5312558236462e-23
-8.8089110662695e-23
-2.8250860325359e-22
-8.399024196758e-22
-2.3267953245241e-21
-6.0339432411037e-21
-1.4706773309792e-20
-3.3812240509285e-20
-7.3564397817084e-20
-1.5189412174068e-19
-2.9839651080663e-19
-5.5897621619191e-19
-1.0004229092382e-18
-1.7135428840286e-18
-2.8129081795695e-18
-4.4310281447502e-18
-6.7051187835926e-18
-9.755886886546e-18
-1.365985734742e-17
-1.8419366343867e-17
-2.3936643667774e-17
-2.9999447506262e-17
-3.6284711388988e-17
-4.2383421003811e-17
-4.784508025281e-17
-5.22349881636e-17
-5.5193745062951e-17
-5.6487224890995e-17
-5.6037146667881e-17
-5.3926798714233e-17
-5.0382072466572e-17
-4.5733126116138e-17
-4.0365385415092e-17
-3.4669547199955e-17
-2.8998914151373e-17
-2.3639497540085e-17
-1.8794883880925e-17
-1.4584793011556e-17
-1.1054158889803e-17
-8.1886407665128e-18
-5.9325836076006e-18
-4.2062555190837e-18
-2.9203090019152e-18
-1.9865165333032e-18
-1.324711603659e-18
-8.6643935190837e-19
-5.5609713322536e-19
-3.5039088052252e-19
-2.1683263241897e-19
-1.3183555219947e-19
-7.8782451295427e-20
-4.6286638193417e-20
-2.6744774786143e-20
-1.5201831274845e-20
-8.5022213710495e-21
-4.6799865661846e-21
-2.5358284998992e-21
-1.3528130042691e-21
-7.1067483098341e-22
-3.6769358761732e-22
-1.8738926460268e-22
-9.4081484639956e-23
-4.6539116699036e-23
-2.2684930119901e-23
-1.0897091403256e-23
-5.1592227012096e-24
-2.4077079417854e-24
-1.1076778702199e-24
-5.0240836315181e-25
-2.2468651636616e-25
-9.9086998005755e-26
-4.3094156832397e-26
-1.8485219308749e-26
-7.8212781752638e-27
-3.2645261628369e-27
-1.3442939914866e-27
-5.4618833397919e-28
-2.1898127653908e-28
-1.4143042199997e-28
0
0
0
0
0
-1.2174741604048e-42
-5.2022457559209e-41
-1.1092730401018e-39
-9.475242916715e-37
-3.6223791720961e-35
-4.0380875675873e-33
-1.4761221937616e-31
-2.9583719142079e-30
-4.0450285119407e-29
-4.1967885126731e-28
-3.5106831278968e-27
-2.4603676340949e-26
-1.4827612832573e-25
-7.8303453622826e-25
-3.6756422206918e-24
-1.5511109497116e-23
-5.9394205450769e-23
-2.0799043652433e-22
-6.7062484389603e-22
-2.0027593222736e-21
-5.5689614554609e-21
-1.4486267120055e-20
-3.5400420913916e-20
-8.1579327368294e-20
-1.7789163273297e-19
-3.6818170910471e-19
-7.2523078238372e-19
-1.3627758535038e-18
-2.4478631713934e-18
-4.2102103764111e-18
-6.9435781416473e-18
-1.0993087442792e-17
-1.6722904842719e-17
-2.4461636680384e-17
-3.4428402495986e-17
-4.6650037026312e-17
-6.0887027731779e-17
-7.658965081617e-17
-9.2903688378773e-17
-1.0873616840089e-16
-1.2287742000719e-16
-1.34160395201e-16
-1.4162669460425e-16
-1.4466511036704e-16
-1.4309420982691e-16
-1.3717377719385e-16
-1.2754659593931e-16
-1.1512708291116e-16
-1.0096268139787e-16
-8.6095912161117e-17
-7.1450245572124e-17
-5.775395521781e-17
-4.5505961477793e-17
-3.4979067592016e-17
-2.6250532790411e-17
-1.9247979041794e-17
-1.3799580275182e-17
-9.6802223230823e-18
-6.6486869792016e-18
-4.4740045195946e-18
-2.9514231661439e-18
-1.9098119879241e-18
-1.2128519248919e-18
-7.5631196613444e-19
-4.6331032779393e-19
-2.7893716853371e-19
-1.6511013330707e-19
-9.6123123840666e-20
-5.5056376298168e-20
-3.1033976993766e-20
-1.7219810047094e-20
-9.4076048383699e-21
-5.0614738826466e-21
-2.6822517869691e-21
-1.4002811692522e-21
-7.2025293789811e-22
-3.6505926081826e-22
-1.8234729934351e-22
-8.9771334080669e-23
-4.3563194426567e-23
-2.0839349574338e-23
-9.8280602023631e-24
-4.5698944298009e-24
-2.0952407966287e-24
-9.4729542146934e-25
-4.2237177174447e-25
-1.8573624966863e-25
-8.0561124664311e-26
-3.4468040954565e-26
-1.454807715846e-26
-6.0579925189275e-27
-2.4889878367839e-27
-1.0090785921893e-27
-4.0371336005634e-28
-2.5988559480876e-28
0
0
0
0
0
-5.2272277775324e-42
-2.2296195777935e-40
-4.7458235469779e-39
-4.7000377014012e-36
-1.7965125302971e-34
-1.0159950501457e-32
-3.218759424378e-31
-6.160510357197e-30
-8.2718072829145e-29
-8.5349999979875e-28
-7.1525416067095e-27
-5.0439218674e-26
-3.0660797455698e-25
-1.6347218277354e-24
-7.7465402086258e-24
-3.2976357620346e-23
-1.2723302029624e-22
-4.4836704366606e-22
-1.4528948607421e-21
-4.3552250202463e-21
-1.2142498872868e-20
-3.1640869368448e-20
-7.7403395863812e-20
-1.7848376095272e-19
-3.8936732219518e-19
-8.0626856476218e-19
-1.5894074875609e-18
-2.9904269449659e-18
-5.3815313886059e-18
-9.2792041696468e-18
-1.5351098292366e-17
-2.4391427859343e-17
-3.7250337610923e-17
-5.4708862896484e-17
-7.7304446286768e-17
-1.051308183364e-16
-1.3765496623781e-16
-1.7360498244139e-16
-2.1097849281211e-16
-2.4719925079695e-16
-2.7941346330889e-16
-3.0487806954028e-16
-3.2136384711086e-16
-3.2748754144729e-16
-3.2290274712484e-16
-3.0831400452865e-16
-2.8532114660342e-16
-2.5613823370707e-16
-2.2325343010709e-16
-1.8909898651456e-16
-1.5578658066513e-16
-1.2493948594392e-16
-9.7627522545363e-17
-7.4390140272856e-17
-5.5320875014515e-17
-4.0183186715452e-17
-2.853135870628e-17
-1.9817696219188e-17
-1.3475786039365e-17
-8.9769638885082e-18
-5.8623136326711e-18
-3.7553219312373e-18
-2.3611409172084e-18
-1.4579219214386e-18
-8.8451998650315e-19
-5.2753038534093e-19
-3.0941478071261e-19
-1.7854910758951e-19
-1.0140258946684e-19
-5.669566211909e-20
-3.1216097384653e-20
-1.6929295405464e-20
-9.0452455233549e-21
-4.7621194905183e-21
-2.470841655648e-21
-1.263603867318e-21
-6.3701111621896e-22
-3.1658844067471e-22
-1.5512852128229e-22
-7.4949583395002e-23
-3.5707306794865e-23
-1.6775769667344e-23
-7.7726864601939e-24
-3.5517987993807e-24
-1.6008075521593e-24
-7.1165384488457e-25
-3.1207813660144e-25
-1.3500490921816e-25
-5.7617610961673e-26
-2.426103203415e-26
-1.0079560759016e-26
-4.1322188627884e-27
-1.6717314027223e-27
-6.6745844776906e-28
-4.2829990060481e-28
0
0
0
0
0
-1.866758471e-41
-7.9482899937988e-40
-1.6888268659469e-38
-1.8631840338664e-35
-7.1161988266222e-34
-2.5866075934968e-32
-6.7869252432366e-31
-1.2058449541193e-29
-1.5680049225502e-28
-1.5988134232531e-27
-1.3391921652605e-26
-9.5006768699694e-26
-5.8288184731795e-25
-3.1398477006238e-24
-1.5027707469111e-23
-6.4537678114302e-23
-2.5082596851099e-22
-8.8889472492231e-22
-2.8919596622234e-21
-8.6908772056162e-21
-2.4259936897525e-20
-6.3224802878763e-20
-1.5455820765259e-19
-3.5593832823051e-19
-7.7526755468072e-19
-1.6028049358169e-18
-3.1553628848734e-18
-5.9313889109442e-18
-1.0670789357453e-17
-1.8405776341655e-17
-3.0479818416252e-17
-4.8504036606101e-17
-7.4219325239639e-17
-1.0924389208555e-16
-1.5471306815618e-16
-2.1085830632614e-16
-2.7661442075325e-16
-3.4937120082304e-16
-4.2498035526605e-16
-4.9808278882392e-16
-5.6274171893853e-16
-6.1327757934116e-16
-6.451327165038e-16
-6.5557396047846e-16
-6.4407825907091e-16
-6.1232817164417e-16
-5.638418688942e-16
-5.0334473783557e-16
-4.3603409300976e-16
-3.6688802142042e-16
-3.0013246729974e-16
-2.3892484983811e-16
-1.8525661534943e-16
-1.4003505288074e-16
-1.0328268722528e-16
-7.4389731181601e-17
-5.2365992973497e-17
-3.6056321057053e-17
-2.4301995347443e-17
-1.604540740265e-17
-1.038517670335e-17
-6.5935998957119e-18
-4.1091524366888e-18
-2.5151358816754e-18
-1.512833130728e-18
-8.9467089613459e-19
-5.2045309354994e-19
-2.9794071060314e-19
-1.6790852234629e-19
-9.3187135683501e-20
-5.0945625666729e-20
-2.7443251432688e-20
-1.4569203457505e-20
-7.6240676343808e-21
-3.9332748800846e-21
-2.0007503946964e-21
-1.0035688949708e-21
-4.9642495924004e-22
-2.4218212137716e-22
-1.1652992189877e-22
-5.5304550911225e-23
-2.5889932767341e-23
-1.1955416249281e-23
-5.4460125725968e-24
-2.4473112728421e-24
-1.0849593722063e-24
-4.7453636153265e-25
-2.0477485479459e-25
-8.7187797874575e-26
-3.6629346948028e-26
-1.5185220093465e-26
-6.2123673303583e-27
-2.5082135301639e-27
-9.994749291813e-28
-6.3939525581682e-28
0
0
0
0
0
-5.7035184778425e-41
-2.424110038021e-39
-5.1415191535113e-38
-6.1464890272631e-35
-2.3449397210376e-33
-6.5248566218494e-32
-1.4100807715761e-30
-2.267279411968e-29
-2.8063452409462e-28
-2.8006492038819e-27
-2.33371806035e-26
-1.662230327571e-25
-1.0284192243603e-24
-5.5942964571444e-24
-2.7026594642488e-23
-1.1699941389619e-22
-4.5756670188993e-22
-1.6287243981292e-21
-5.3130493390463e-21
-1.5983762474561e-20
-4.4603173448179e-20
-1.1606946476025e-19
-2.8305753508733e-19
-6.4985759565557e-19
-1.4105253997623e-18
-2.9056184499592e-18
-5.7001959560603e-18
-1.0681396367004e-17
-1.9165358047223e-17
-3.2989821886388e-17
-5.4552144640579e-17
-8.6738147988051e-17
-1.3268415509966e-16
-1.9533238153385e-16
-2.7678471115319e-16
-3.775297460247e-16
-4.9569822448603e-16
-6.2656369197328e-16
-7.6251213800824e-16
-8.9362883801635e-16
-1.0088960342413e-15
-1.0978054982326e-15
-1.1520374961372e-15
-1.166808533321e-15
-1.1415701241586e-15
-1.0799206402291e-15
-9.8880343236359e-16
-8.7723258714693e-16
-7.5486487773803e-16
-6.3071541401126e-16
-5.1222236934187e-16
-4.0474600442687e-16
-3.1147863987959e-16
-2.3366958126314e-16
-1.7103885613019e-16
-1.2225910965433e-16
-8.5412669574442e-17
-5.8366721729942e-17
-3.9043140784402e-17
-2.5584833818693e-17
-1.6435698280413e-17
-1.0357561711991e-17
-6.4072662665767e-18
-3.8931473533924e-18
-2.3248364467597e-18
-1.3651509708251e-18
-7.8864291962316e-19
-4.4842212633383e-19
-2.5105924799059e-19
-1.3845343320237e-19
-7.5232526172736e-20
-4.0290165893809e-20
-2.1270762024736e-20
-1.1072355961486e-20
-5.6837811225775e-21
-2.8775901589797e-21
-1.4370017624327e-21
-7.0787290343157e-22
-3.4399170943206e-22
-1.6491280762674e-22
-7.7999008848114e-23
-3.6396833746635e-23
-1.675666882396e-23
-7.6115011154628e-24
-3.4113052433229e-24
-1.5085105609004e-24
-6.5821048480776e-25
-2.833888281857e-25
-1.2039733264134e-25
-5.0475889028539e-26
-2.0883481884805e-26
-8.5269670591169e-27
-3.4362276079388e-27
-1.3667520390407e-27
-8.7183301750599e-28
0
0
0
0
0
-1.5219097517129e-40
-6.4568357295821e-39
-1.367047084445e-37
-1.7352874768799e-34
-6.6113864520318e-33
-1.575889812836e-31
-2.8893135526248e-30
-4.1562803730216e-29
-4.8192693990321e-28
-4.6520376878409e-27
-3.8286796355083e-26
-2.7266776700157e-25
-1.6969577321126e-24
-9.3043425548765e-24
-4.529781479329e-23
-1.9735475322616e-22
-7.7543363723283e-22
-2.7680904631854e-21
-9.0401330907721e-21
-2.7185306565747e-20
-7.5727314213607e-20
-1.9648505266607e-19
-4.77302386775e-19
-1.0907407451311e-18
-2.3553013489032e-18
-4.8255824864566e-18
-9.4153175371594e-18
-1.7550562953274e-17
-3.1337032680158e-17
-5.3704907081557e-17
-8.8470573457231e-17
-1.4023759248336e-16
-2.1405873520457e-16
-3.1480003705408e-16
-4.4618507503672e-16
-6.095623952981e-16
-8.0255486760024e-16
-1.0179198880496e-15
-1.2431030996889e-15
-1.4609632623116e-15
-1.6518695746945e-15
-1.7968732252252e-15
-1.8811639638869e-15
-1.8968178462328e-15
-1.8440536252687e-15
-1.7307357844552e-15
-1.5704304399849e-15
-1.3796909070897e-15
-1.1753200568345e-15
-9.721800908066e-16
-7.8183266758347e-16
-6.120227717694e-16
-4.6684105360961e-16
-3.4732438397618e-16
-2.5225911648943e-16
-1.7900117052733e-16
-1.2419183462923e-16
-8.4308967784679e-17
-5.6040537900935e-17
-3.6498437390915e-17
-2.3306544537462e-17
-1.4601375808693e-17
-8.9803660137345e-18
-5.425511108145e-18
-3.2216890524088e-18
-1.8813036762363e-18
-1.0809025900726e-18
-6.1132062803321e-19
-3.4047872332322e-19
-1.8681563465345e-19
-1.0101424057327e-19
-5.3842110286729e-20
-2.8296736624699e-20
-1.4666012100558e-20
-7.4975447869841e-21
-3.7810503120094e-21
-1.8811967387862e-21
-9.2345423967838e-22
-4.4727847416499e-22
-2.1376524361733e-22
-1.0080973407183e-22
-4.6911609904177e-23
-2.1541441479797e-23
-9.760877758481e-24
-4.3644134177979e-24
-1.9257055013412e-24
-8.3846784625954e-25
-3.6026577814628e-25
-1.5275990889322e-25
-6.3923077743881e-26
-2.6398694815329e-26
-1.0759714831471e-26
-4.3284459946042e-27
-1.7186911434602e-27
-1.0933721001544e-27
0
0
0
0
0
-3.6029986626974e-40
-1.5258561595191e-38
-3.2247697022726e-37
-4.2795625960133e-34
-1.6280661969605e-32
-3.5502000084981e-31
-5.7611840986245e-30
-7.4587185844187e-29
-8.0279606888371e-28
-7.411299980631e-27
-5.971046757371e-26
-4.2260275510747e-25
-2.6345725437253e-24
-1.451472739468e-23