/*--------------------------------*- C++ -*----------------------------------*\
| =========                 |                                                 |
| \\      /  F ield         | OpenFOAM: The Open Source CFD Toolbox           |
|  \\    /   O peration     | Version:  v1812                                 |
|   \\  /    A nd           | Web:      www.OpenFOAM.com                      |
|    \\/     M anipulation  |                                                 |
\*---------------------------------------------------------------------------*/
FoamFile
{
    version     2.0;
    format      ascii;
    class       volScalarField;
    location    "4";
    object      alpha.water;
}
// * * * * * * * * * * * * * * * * * * * * * * * * * * * * * * * * * * * * * //

dimensions      [0 0 0 0 0 0 0];


internalField   nonuniform List<scalar> 
6000
(
0
0
0
0
0
0
0
0
0
0
0
0
0
0
0
0
0
0
0
0
0
0
0
0
0
0
0
0
0
0
0
0
0
0
0
0
0
0
0
0
0
0
0
0
0
0
0
0
0
0
0
0
0
0
0
0
0
0
0
0
0
0
0
0
0
0
0
0
0
0
0
0
0
0
0
0
0
0
0
0
0
0
0
0
0
0
0
0
0
0
0
0
0
0
0
0
0
0
0
0
0
0
0
0
0
0
0
0
0
0
0
0
0
0
0
0
0
0
0
0
0
0
0
0
0
0
0
0
0
0
0
0
0
0
0
0
0
0
0
0
0
0
0
0
0
0
0
0
0
0
0
0
0
0
0
0
0
0
0
0
0
0
0
0
0
0
0
0
0
0
0
0
0
0
0
0
0
0
0
0
0
0
0
0
0
0
0
0
0
0
0
0
0
0
0
0
0
0
0
0
0
0
0
0
0
0
0
0
0
0
0
0
0
0
0
0
0
0
0
0
0
0
0
0
0
0
0
0
0
0
0
0
0
0
0
0
0
0
0
0
0
0
0
0
0
0
0
0
0
0
0
0
0
0
0
0
0
0
0
0
0
0
0
0
0
0
0
0
0
0
0
0
0
0
0
0
0
0
0
0
0
0
0
0
0
0
0
0
0
0
0
0
0
0
0
0
0
0
0
0
0
0
0
0
0
0
0
0
0
0
0
0
0
0
0
0
0
0
0
0
0
0
0
0
0
0
0
0
0
0
0
0
0
0
0
0
0
0
0
0
0
0
0
0
0
0
0
0
0
0
0
0
0
0
0
0
0
0
0
0
0
0
0
0
0
0
0
0
0
0
0
0
0
0
0
0
0
0
0
0
0
0
0
0
0
0
0
0
0
0
0
0
0
0
0
0
0
0
0
0
0
0
0
0
0
0
0
0
0
0
0
0
0
0
0
0
0
0
0
0
0
0
0
0
0
0
0
0
0
0
0
0
0
0
0
0
0
0
0
0
0
0
0
0
0
0
0
0
0
0
0
0
0
0
0
0
0
0
0
0
0
0
0
0
0
0
0
0
0
0
0
0
0
0
0
0
0
0
0
0
0
0
0
0
0
0
0
0
0
0
0
0
0
0
0
0
0
0
0
0
0
0
0
0
0
0
0
-1.2434795026137e-81
2.6155065115922e-79
2.7647165146211e-77
-7.2033039291776e-67
-6.2570559352063e-65
-2.7152037566101e-63
-7.8481510275705e-62
-1.6998752375423e-60
-2.9429300857043e-59
-4.2421353269034e-58
-5.2367872723789e-57
-5.6516561976497e-56
-5.416965329549e-55
-4.6687501378926e-54
-3.6548871506909e-53
-2.6204742922553e-52
-1.7327846132011e-51
-1.0630290535976e-50
-6.0813880799659e-50
-3.2587536812917e-49
-1.6420677318746e-48
-7.8077584307032e-48
-3.5139827327883e-47
-1.5011193734334e-46
-6.1018282598022e-46
-2.3654810916596e-45
-8.7637838544082e-45
-3.1088370103606e-44
-1.0577735406962e-43
-3.4575702647921e-43
-1.0873654096753e-42
-3.2945950010694e-42
-9.629518449482e-42
-2.7183133323101e-41
-7.4194101098569e-41
-1.960044800946e-40
-5.0166451959701e-40
-1.2451171420446e-39
-2.9993835836832e-39
-7.0183194985945e-39
-1.5964249365266e-38
-3.5326055532202e-38
-7.6098064648821e-38
-1.5968686813331e-37
-3.2662778139762e-37
-6.5160360097796e-37
-1.2685459833532e-36
-2.4113261697303e-36
-4.4777183334434e-36
-8.1268612538408e-36
-1.4423117741378e-35
-2.5041595918504e-35
-4.2551964934116e-35
-7.0796630550733e-35
-1.1537569653046e-34
-1.8424322927776e-34
-2.8840614155671e-34
-4.4269798351455e-34
-6.6657540478012e-34
-9.8485657566623e-34
-1.42829143532e-33
-2.0338277653771e-33
-2.8444204663085e-33
-3.9082302822182e-33
-5.277078353761e-33
-7.0040684267186e-33
-9.1403603184483e-33
-1.1731173236404e-32
-1.4811207951613e-32
-1.8399790365887e-32
-2.2496140010654e-32
-2.7075238434568e-32
-3.2084798503426e-32
-3.7443804736815e-32
-4.3043002093668e-32
-4.8747559780078e-32
-5.4401940397224e-32
-5.9836783779253e-32
-6.4877395385981e-32
-6.9353239163867e-32
-7.310770008919e-32
-7.6007321531384e-32
-7.794974701906e-32
-7.8869703708137e-32
-7.8742543533279e-32
-7.758508613138e-32
-7.5453757617424e-32
-7.2440261682806e-32
-6.8665227026823e-32
-6.4270426439133e-32
-5.9410244920455e-32
-5.4243083533576e-32
-3.2002166724293e-31
0
0
0
0
0
0
9.5042864680064e-81
7.9968092067075e-79
4.965477873898e-77
2.3434924174907e-75
-3.0787480679784e-65
-2.6716927409046e-63
-1.158224911394e-61
-3.34450438929e-60
-7.2369462324298e-59
-1.2516763869825e-57
-1.8024797052792e-56
-2.2229233169333e-55
-2.39667364943e-54
-2.2948947501128e-53
-1.975972210475e-52
-1.5453526137492e-51
-1.1068961486064e-50
-7.3121458707912e-50
-4.4814507472797e-49
-2.5612347305781e-48
-1.3711068859362e-47
-6.9021422091217e-47
-3.2786285135942e-46
-1.4741389638152e-45
-6.2911051716969e-45
-2.5547274042198e-44
-9.894113772467e-44
-3.6620298021454e-43
-1.2977795792596e-42
-4.4113185557074e-42
-1.4405205273339e-41
-4.5258134224944e-41
-1.36992202585e-40
-4.0001018771704e-40
-1.1280767817325e-39
-3.0759635365115e-39
-8.1180265100937e-39
-2.0757283698286e-38
-5.1468323803485e-38
-1.238609808007e-37
-2.8953985357333e-37
-6.5795539506835e-37
-1.4545071412721e-36
-3.1301641622033e-36
-6.5619895481354e-36
-1.340887429475e-35
-2.6723638301363e-35
-5.1974615149311e-35
-9.8699291890872e-35
-1.8309981829234e-34
-3.3199161180387e-34
-5.8862214925983e-34
-1.0209693538994e-33
-1.7331798973721e-33
-2.8807794193051e-33
-4.6901336875962e-33
-7.4823147113459e-33
-1.170098891527e-32
-1.7943176185667e-32
-2.6990744516076e-32
-3.983936977987e-32
-5.7720526864014e-32
-8.2111068813779e-32
-1.1472432307151e-31
-1.5747663614452e-31
-2.1242415644077e-31
-2.8166651399308e-31
-3.6721696612113e-31
-4.7084239469931e-31
-5.9388094186649e-31
-7.3704955860818e-31
-9.0025768683139e-31
-1.0824460241309e-30
-1.2814702132132e-30
-1.4940479094122e-30
-1.7157838389195e-30
-1.9412813380742e-30
-2.1643409883626e-30
-2.3782381728635e-30
-2.576062727039e-30
-2.751096451641e-30
-2.8971991053913e-30
-3.0091713451443e-30
-3.0830642938284e-30
-3.1164099095487e-30
-3.1083535849921e-30
-3.0596795482335e-30
-2.9727295605233e-30
-2.8512249451954e-30
-2.7000100665225e-30
-2.524741181968e-30
-2.3315476274396e-30
-2.126692451274e-30
-1.2480574994416e-29
0
0
0
0
0
5.8162255562088e-82
4.0550281580098e-79
3.3086981664806e-77
1.7565842411749e-75
7.0844005904341e-74
-6.5728040927421e-64
-5.6981735059471e-62
-2.4678260672552e-60
-7.1191110259331e-59
-1.5389395259121e-57
-2.6590734994333e-56
-3.8254330234822e-55
-4.7130983207652e-54
-5.0764788669365e-53
-4.8561040373002e-52
-4.1771246781165e-51
-3.2635890090817e-50
-2.3353172347472e-49
-1.541185332446e-48
-9.4362521926757e-48
-5.3876709948621e-47
-2.8813343475758e-46
-1.4490280672472e-45
-6.8763116486715e-45
-3.0886742753294e-44
-1.3168335468364e-43
-5.3421818080671e-43
-2.066907659578e-42
-7.6425105683209e-42
-2.7057336100229e-41
-9.1880295049772e-41
-2.9973897081725e-40
-9.4078449821303e-40
-2.8448479119335e-39
-8.2985824856911e-39
-2.3379819094844e-38
-6.3687362521307e-38
-1.679160154205e-37
-4.2892537060007e-37
-1.06248006453e-36
-2.5543760305733e-36
-5.9652441234171e-36
-1.3542096091278e-35
-2.9907139942046e-35
-6.4297746390628e-35
-1.3465851291881e-34
-2.7489084772302e-34
-5.4730986000637e-34
-1.0634051179633e-33
-2.0173968320535e-33
-3.7388247394389e-33
-6.7724260412751e-33
-1.1995650417577e-32
-2.0785957169301e-32
-3.5250978137351e-32
-5.8533950173637e-32
-9.5203616320643e-32
-1.5173112989772e-31
-2.3704559720084e-31
-3.6314440981529e-31
-5.4571480792264e-31
-8.047005297697e-31
-1.1647244511468e-30
-1.6552584714139e-30
-2.3104201252254e-30
-3.168276400032e-30
-4.269553442057e-30
-5.6556891688912e-30
-7.3662246933823e-30
-9.4356069910677e-30
-1.1889562795426e-29
-1.4741292208476e-29
-1.7987807412594e-29
-2.1606793776914e-29
-2.5554385484348e-29
-2.9764217051271e-29
-3.4148032815963e-29
-3.8598012507792e-29
-4.299081330615e-29
-4.7193154363194e-29
-5.106859956709e-29
-5.448505034121e-29
-5.7322362186722e-29
-5.947946076396e-29
-6.0880362140569e-29
-6.1478595140927e-29
-6.125967067485e-29
-6.024142572061e-29
-5.8472266224935e-29
-5.6027520461351e-29
-5.3004271479065e-29
-4.9515148264521e-29
-4.5681611003428e-29
-4.162726472507e-29
-2.429989299508e-28
0
0
0
0
0
2.5685324424533e-80
7.7011216002749e-78
5.8211658732601e-76
2.9380081487116e-74
1.1384244207061e-72
-9.3454383269322e-63
-8.0938622863749e-61
-3.5019152341399e-59
-1.0092240130938e-57
-2.1794849656824e-56
-3.7621228439119e-55
-5.406962396102e-54
-6.6550174389018e-53
-7.1610236139349e-52
-6.8433736505509e-51
-5.8807055815712e-50
-4.5900480796711e-49
-3.2812366128547e-48
-2.1632993288381e-47
-1.3232187321372e-46
-7.5475129227104e-46
-4.0324368012713e-45
-2.0259201001216e-44
-9.6044659419271e-44
-4.3098538438026e-43
-1.8356705231549e-42
-7.4397207920863e-42
-2.8756359268931e-41
-1.0622444811989e-40
-3.757074886601e-40
-1.2745719355189e-39
-4.1539676432815e-39
-1.3025330049493e-38
-3.9349304709251e-38
-1.1467323394716e-37
-3.2276029456317e-37
-8.783622571483e-37
-2.3136334501678e-36
-5.9042771732588e-36
-1.4611299334038e-35
-3.509428055277e-35
-8.1877308416319e-35
-1.8569719460257e-34
-4.0971199421689e-34
-8.8000279575021e-34
-1.8412243771488e-33
-3.7550680785095e-33
-7.4692226572479e-33
-1.4498577139983e-32
-2.7479088306818e-32
-5.0878022964322e-32
-9.2071083842963e-32
-1.6292447498248e-31
-2.8204326455131e-31
-4.7785885516487e-31
-7.9271779156225e-31
-1.2880894714872e-30
-2.0509192605849e-30
-3.2010060573877e-30
-4.8990753071957e-30
-7.3549552969209e-30
-1.0834964990094e-29
-1.5667319850269e-29
-2.2244107416383e-29
-3.1018237710235e-29
-4.2493799681574e-29
-5.7208511425225e-29
-7.5707475810936e-29
-9.8508247386692e-29
-1.2605823935225e-28
-1.5868666039797e-28
-1.9655433447656e-28
-2.396057547226e-28
-2.8752837914032e-28
-3.3972433299052e-28
-3.9529923287476e-28
-4.5307175716428e-28
-5.1160591443072e-28
-5.692658565504e-28
-6.2429077562398e-28
-6.7488519311138e-28
-7.193180852258e-28
-7.5602304669103e-28
-7.8369125753523e-28
-8.0134946314509e-28
-8.0841646763185e-28
-8.0473362377774e-28
-7.9056723898242e-28
-7.6658341176744e-28
-7.3379826321419e-28
-6.9350856032671e-28
-6.4720913977446e-28
-5.9650421779256e-28
-5.4301960102387e-28
-3.1527277706732e-27
0
0
0
0
0
5.2457230876797e-79
7.8070736433466e-77
5.0193853528432e-75
2.5401908498638e-73
1.0433929872571e-71
-9.9557327375124e-62
-8.613883973027e-60
-3.7232157220725e-58
-1.0719373272595e-56
-2.3126236093103e-55
-3.9879840956516e-54
-5.7258947671653e-53
-7.0405902700637e-52
-7.5684201572253e-51
-7.2255538713941e-50
-6.2029991611483e-49
-4.8368396009771e-48
-3.4542604524271e-47
-2.2751408798186e-46
-1.3902685059422e-45
-7.9222336383106e-45
-4.2285318322718e-44
-2.1223854386528e-43
-1.0052101318473e-42
-4.5064003158e-42
-1.9175537470113e-41
-7.7642071018028e-41
-2.998224704612e-40
-1.1064881038968e-39
-3.9099059877115e-39
-1.3251871858337e-38
-4.3149383848066e-38
-1.351764405334e-37
-4.0799254620176e-37
-1.1879062557727e-36
-3.3404664691061e-36
-9.0825844597098e-36
-2.3902363419385e-35
-6.0943186484678e-35
-1.5068182428298e-34
-3.6159574963367e-34
-8.4288174247154e-34
-1.9099656544874e-33
-4.21033699768e-33
-9.0352643386927e-33
-1.8887855243088e-32
-3.8486921278279e-32
-7.6487473945063e-32
-1.4834052154713e-31
-2.8090276628188e-31
-5.196402701981e-31
-9.3953753010295e-31
-1.6610961572614e-30
-2.8730345195052e-30
-4.8634041962092e-30
-8.0607183907468e-30
-1.308622104913e-29
-2.0817491401675e-29
-3.246207995258e-29
-4.9637771305958e-29
-7.4453427873931e-29
-1.0958138122646e-28
-1.5830935380181e-28
-2.2455741212752e-28
-3.128440838817e-28
-4.2818615855332e-28
-5.7591939900602e-28
-7.6143276888188e-28
-9.8981683191994e-28
-1.265437259204e-27
-1.5914559560681e-27
-1.9693338156947e-27
-2.3983588429613e-27
-2.8752496174154e-27
-3.3938852380563e-27
-3.945207983796e-27
-4.5173336616526e-27
-5.0958876406573e-27
-5.6645634430658e-27
-6.2058778136205e-27
-6.7020742107377e-27
-7.1361085297584e-27
-7.492639081328e-27
-7.7589391491431e-27
-7.925655535484e-27
-7.9873498966286e-27
-7.9427797955557e-27
-7.7949008112737e-27
-7.5505967974225e-27
-7.2201694637407e-27
-6.8166382025774e-27
-6.354914537762e-27
-5.850921690103e-27
-5.3207284700304e-27
-3.0716206304307e-26
0
0
0
0
0
-4.741089135514e-74
-4.1476481830451e-72
-1.8125437236684e-70
-5.2751488139683e-69
-1.1501415463042e-67
-8.4761901676307e-61
-7.3264526389233e-59
-3.1635926808483e-57
-9.0991277952678e-56
-1.961119682269e-54
-3.3784883141384e-53
-4.8460017319968e-52
-5.9528099911746e-51
-6.3928226975902e-50
-6.0972632883069e-49
-5.2293051081381e-48
-4.0736587645041e-47
-2.9064387120829e-46
-1.9124941572221e-45
-1.167559521168e-44
-6.6469051322334e-44
-3.5445088762728e-43
-1.7774142452342e-42
-8.4105161541716e-42
-3.7670427414938e-41
-1.6015003024854e-40
-6.478718381258e-40
-2.4996118141467e-39
-9.2167005716897e-39
-3.2540135060844e-38
-1.1019415024893e-37
-3.5849915266673e-37
-1.1221493449861e-36
-3.3840893634979e-36
-9.8449932890984e-36
-2.7662258049316e-35
-7.5152020290528e-35
-1.9761779034025e-34
-5.0346282981795e-34
-1.2438358029221e-33
-2.9825522940014e-33
-6.946984820427e-33
-1.5729768667712e-32
-3.4648349657917e-32
-7.4297983340836e-32
-1.5519957410022e-31
-3.1600481881631e-31
-6.2754392023097e-31
-1.2161501048134e-30
-2.3012136401379e-30
-4.2537984793236e-30
-7.6852986896818e-30
-1.3577283691548e-29
-2.3465463551308e-29
-3.9691470955962e-29
-6.5735075501594e-29
-1.0663554992597e-28
-1.6950322544409e-28
-2.6411004547969e-28
-4.0353088935465e-28
-6.0478613102478e-28
-8.8941194633306e-28
-1.2838611504272e-27
-1.8196178924469e-27
-2.532899277617e-27
-3.4638210688328e-27
-4.6549274842067e-27
-6.1490294175825e-27
-7.9863609935879e-27
-1.0201147427842e-26
-1.2817769984697e-26
-1.5846805194957e-26
-1.9281291876578e-26
-2.3093626900574e-26
-2.7233496930284e-26
-3.1627210636572e-26
-3.6178702465292e-26
-4.0772340563141e-26
-4.5277500933506e-26
-4.9554686293559e-26
-5.3462793997115e-26
-5.6866995645865e-26
-5.9646601320533e-26
-6.1702257093731e-26
-6.2961870496109e-26
-6.3384770380839e-26
-6.2963771907229e-26
-6.1725014135633e-26
-5.9725643246483e-26
-5.7049604657163e-26
-5.3801961394604e-26
-5.0102258858142e-26
-4.6077499877506e-26
-4.1855278889687e-26
-2.4015251464048e-25
0
0
0
0
0
-2.0792277859979e-72
-1.8173765978127e-70
-7.9351824397132e-69
-4.775688870613e-67
-2.5601665915235e-65
-6.0086317657208e-60
-5.1878660968939e-58
-2.2378488561462e-56
-6.4300291048868e-55
-1.3844732422906e-53
-2.3827253567258e-52
-3.4143662378777e-51
-4.1901308548053e-50
-4.4955360434288e-49
-4.2836247642987e-48
-3.670393500845e-47
-2.8566045132178e-46
-2.036236592926e-45
-1.3386704323776e-44
-8.1651482343845e-44
-4.6443092723569e-43
-2.4744549946653e-42
-1.2397648672755e-41
-5.8614617485283e-41
-2.6231430979127e-40
-1.1142745764564e-39
-4.5040555580669e-39
-1.7363703978425e-38
-6.3974398293833e-38
-2.256923184591e-37
-7.63709896619e-37
-2.4827682484477e-36
-7.765734479315e-36
-2.3402545378107e-35
-6.8034867780037e-35
-1.9103102378927e-34
-5.1863547797587e-34
-1.3628806258517e-33
-3.4698772099975e-33
-8.567006566338e-33
-2.0529464137784e-32
-4.7787380790192e-32
-1.0813593306754e-31
-2.3804780794121e-31
-5.1014698119709e-31
-1.0649955471067e-30
-2.1671641994335e-30
-4.3011491663305e-30
-8.3304943686648e-30
-1.5753759652489e-29
-2.9103675676061e-29
-5.2550252391145e-29
-9.2783133364761e-29
-1.6026025154784e-28
-2.7091456772627e-28
-4.4840273188539e-28
-7.2695236257718e-28
-1.1548117844578e-27
-1.7982224995192e-27
-2.7457188149739e-27
-4.1124148522205e-27
-6.0437779233812e-27
-8.718228675557e-27
-1.2347780134045e-26
-1.7175863139303e-26
-2.3471519198835e-26
-3.1519302928948e-26
-4.1604542111708e-26
-5.399405153723e-26
-6.8912960170223e-26
-8.6518936345595e-26
-1.068757059382e-25
-1.2992826201126e-25
-1.5548246740221e-25
-1.8319177369521e-25
-2.125534702204e-25
-2.4291622685573e-25
-2.7349974603214e-25
-3.0342618306163e-25
-3.3176176000023e-25
-3.5756583959333e-25
-3.7994379569405e-25
-3.980994449717e-25
-4.1138267783489e-25
-4.1932827217393e-25
-4.2168265642265e-25
-4.1841651497625e-25
-4.0972246156221e-25
-3.9599838378921e-25
-3.7781832406325e-25
-3.5589377025785e-25
-3.310288861356e-25
-3.0407346941587e-25
-2.7587729022916e-25
-1.5723543491819e-24
0
0
0
0
0
-4.5548432692874e-71
-3.9777304134546e-69
-1.7352746872561e-67
-1.5462515804147e-65
-9.7764519025063e-64
-3.6499159131007e-59
-3.1462820923419e-57
-1.355629090575e-55
-3.8910364515404e-54
-8.3694332263394e-53
-1.438982700779e-51
-2.0600180491839e-50
-2.5256694199383e-49
-2.7072406019134e-48
-2.5772799082459e-47
-2.2063573369259e-46
-1.7156732066491e-45
-1.2219178011946e-44
-8.0264722270639e-44
-4.8917052129357e-43
-2.7801632719625e-42
-1.4800943902583e-41
-7.4099881205292e-41
-3.5007415136023e-40
-1.565523364464e-39
-6.6453941909718e-39
-2.684297669046e-38
-1.0341299941869e-37
-3.8076075159133e-37
-1.3424041391068e-36
-4.539653929631e-36
-1.4749101251755e-35
-4.6105645252918e-35
-1.3886215722859e-34
-4.0346748187259e-34
-1.1322540234565e-33
-3.0723578322072e-33
-8.0694405319527e-33
-2.0534396603852e-32
-5.0673990164065e-32
-1.2137448770744e-31
-2.823983188122e-31
-6.3873822268253e-31
-1.4054828448399e-30
-3.0107119887601e-30
-6.2825761122079e-30
-1.2779117970256e-29
-2.5352168762679e-29
-4.9082288147061e-29
-9.2781820849333e-29
-1.7133723562287e-28
-3.0924584376178e-28
-5.4578610329015e-28
-9.4232810979011e-28
-1.5923164018032e-27
-2.6344078654304e-27
-4.2690851318997e-27
-6.7787526604138e-27
-1.055083004444e-26
-1.6102676715466e-26
-2.4106338537333e-26
-3.541016750827e-26
-5.1053447691143e-26
-7.2269426630702e-26
-1.0047179714406e-25
-1.3721990050274e-25
-1.8415889829165e-25
-2.4293298184116e-25
-3.1507233471109e-25
-4.0185786960539e-25
-5.0417140669837e-25
-6.2234249150993e-25
-7.5600592847766e-25
-9.0398578459733e-25
-1.0642216341271e-24
-1.2337508864789e-24
-1.4087571340692e-24
-1.5846888367538e-24
-1.756445871376e-24
-1.9186242926352e-24
-2.0658029727323e-24
-2.1928505024365e-24
-2.2952275902854e-24
-2.3692596692719e-24
-2.412356646252e-24
-2.4231614729613e-24
-2.4016159075774e-24
-2.3489396517934e-24
-2.2675270447251e-24
-2.1607727392578e-24
-2.0328434892435e-24
-1.8884167910375e-24
-1.7324084038357e-24
-1.5697097813e-24
-8.8810518501644e-24
0
0
0
0
0
-6.6460631410629e-70
-5.798946498534e-68
-2.5275850119041e-66
-2.9316941967242e-64
-1.9885381932553e-62
-1.9421754349423e-58
-1.6690529609382e-56
-7.1805728724919e-55
-2.0585707653849e-53
-4.4231271105373e-52
-7.5971307833496e-51
-1.086540008466e-49
-1.330910063092e-48
-1.4253182782764e-47
-1.3557316664275e-46
-1.1596550205347e-45
-9.0103444440358e-45
-6.4123197771837e-44
-4.2089736143604e-43
-2.5633124125235e-42
-1.4558355006948e-41
-7.7453792296479e-41
-3.8751826723809e-40
-1.829640921151e-39
-8.1772252647864e-39
-3.4691006240713e-38
-1.4005076209382e-37
-5.3925886685545e-37
-1.9844959900341e-36
-6.9930335183331e-36
-2.3637286249778e-35
-7.6761088070049e-35
-2.3984928364949e-34
-7.2207939087818e-34
-2.0971725599968e-33
-5.8830405935233e-33
-1.5957679636224e-32
-4.1897569000719e-32
-1.0658156617929e-31
-2.6293420718024e-31
-6.2959034659051e-31
-1.464427737329e-30
-3.3113882978866e-30
-7.2845024490619e-30
-1.5600410214033e-29
-3.2546316196442e-29
-6.618605311199e-29
-1.3127616342675e-28
-2.5409942031877e-28
-4.8023313088948e-28
-8.8665119829248e-28
-1.5999904827204e-27
-2.8232431415227e-27
-4.873479560646e-27
-8.2333307447648e-27
-1.3618693754069e-26
-2.2064271776331e-26
-3.5026927402369e-26
-5.4504267581799e-26
-8.3162352316154e-26
-1.2446205746794e-25
-1.8276878150061e-25
-2.6342547703693e-25
-3.7276525979459e-25
-5.1803811235662e-25
-7.0722749564055e-25
-9.4873787450698e-25
-1.2509437298144e-24
-1.6216044352459e-24
-2.0671665337733e-24
-2.5919937683973e-24
-3.1975833272974e-24
-3.881841353474e-24
-4.6384990221862e-24
-5.456750049718e-24
-6.3211799551255e-24
-7.2120366735857e-24
-8.1058626617227e-24
-8.9764733586329e-24
-9.796229840008e-24
-1.053751939988e-23
-1.1174331201393e-23
-1.1683798837628e-23
-1.2047580002334e-23
-1.2252956041695e-23
-1.2293559574202e-23
-1.2169673539557e-23
-1.18880856355e-23
-1.1461523198724e-23
-1.090773038958e-23
-1.0248278054712e-23
-9.5072141729356e-24
-8.7096682164827e-24
-7.8805165491085e-24
-4.422801780928e-23
0
0
0
0
0
-7.2666118040595e-69
-6.3349191554001e-67
-2.7588177855635e-65
-3.8880917173355e-63
-2.7411232215853e-61
-9.2218538378425e-58
-7.8745951003132e-56
-3.3799393819696e-54
-9.6752134881186e-53
-2.0763187307408e-51
-3.5624320637597e-50
-5.0899726574923e-49
-6.2290534369319e-48
-6.6652269586904e-47
-6.3347552957955e-46
-5.4145105010766e-45
-4.2040291471267e-44
-2.9898656236076e-43
-1.9612899962072e-42
-1.1937461906201e-41
-6.7761377949236e-41
-3.6031775213626e-40
-1.801859165303e-39
-8.5033883030257e-39
-3.7987492704213e-38
-1.6109069985371e-37
-6.5008144491088e-37
-2.5021748751976e-36
-9.2048691908828e-36
-3.2425649892862e-35
-1.0956826665303e-34
-3.5571373156853e-34
-1.1111645326178e-33
-3.3443625003778e-33
-9.7108883799563e-33
-2.7235223429071e-32
-7.386028825304e-32
-1.9388760462564e-31
-4.9314089291181e-31
-1.2163858095222e-30
-2.9122264899693e-30
-6.7730640030582e-30
-1.5313856066689e-29
-3.3685138013532e-29
-7.2134801110972e-29
-1.5048284557642e-28
-3.0600844064113e-28
-6.0693110850749e-28
-1.1747567581719e-27
-2.2201920999612e-27
-4.0990948462321e-27
-7.3969205902191e-27
-1.3052116185236e-26
-2.2530485747167e-26
-3.8063112722895e-26
-6.2959165965148e-26
-1.0200093379817e-25
-1.6192081665664e-25
-2.5194809156739e-25
-3.8439686595175e-25
-5.7524638580037e-25
-8.4464242849139e-25
-1.2172267531509e-24
-1.7221844703396e-24
-2.3928914521064e-24
-3.2660503573933e-24
-4.3802285077203e-24
-5.773755862487e-24
-7.4820060046594e-24
-9.534163093745e-24
-1.194966518493e-23
-1.4734597961338e-23
-1.7878379663824e-23
-2.1351114699991e-23
-2.5101989213434e-23
-2.9059030464832e-23
-3.313045318404e-23
-3.7207677225629e-23
-4.1169935874914e-23
-4.4890222267115e-23
-4.824216451696e-23
-5.1107299611134e-23
-5.3382149217834e-23
-5.4984497834849e-23
-5.5858337058437e-23
-5.5977062148532e-23
-5.5344673495735e-23
-5.3994925440537e-23
-5.1988555043472e-23
-4.9408891655221e-23
-4.6356276281771e-23
-4.2941795849489e-23
-3.9280857053617e-23
-3.5487090419095e-23
-1.9742179173492e-22
0
0
0
0
0
-6.3504634938422e-68
-5.5314596245389e-66
-2.4068418988803e-64
-3.9483015474811e-62
-2.8517243265236e-60
-3.9741465901053e-57
-3.3505852021642e-55
-1.4325243098343e-53
-4.0919318008527e-52
-8.7680804782055e-51
-1.5025434877955e-49
-2.1445793642278e-48
-2.6220987647857e-47
-2.8034004826891e-46
-2.6624384609535e-45
-2.2741564328849e-44
-1.7646830158779e-43
-1.2543481867781e-42
-8.2242589424967e-42
-5.0035274018502e-41
-2.8390598226526e-40
-1.5091166507744e-39
-7.5442819477635e-39
-3.559283052417e-38
-1.5896325836214e-37
-6.7394301878222e-37
-2.7191115352324e-36
-1.0463875472406e-35
-3.8487225097716e-35
-1.3555627585321e-34
-4.5798913701138e-34
-1.4866805832024e-33
-4.6435390017609e-33
-1.397477145052e-32
-4.0574943002646e-32
-1.1379009985952e-31
-3.0857887515945e-31
-8.1001689629411e-31
-2.0602085210699e-30
-5.0817701642128e-30
-1.2166895578163e-29
-2.829816246781e-29
-6.3985779342914e-29
-1.4075712649599e-28
-3.014513088975e-28
-6.2893596880257e-28
-1.2791055629366e-27
-2.5373003164325e-27
-4.9118519714951e-27
-9.2844749801511e-27
-1.7144627731941e-26
-3.094334291638e-26
-5.461038531939e-26
-9.4285221455709e-26
-1.59314622268e-25
-2.6356441682582e-25
-4.2707610208819e-25
-6.7806687972595e-25
-1.0552213798314e-24
-1.6101541040099e-24
-2.4098361165787e-24
-3.5386848427307e-24
-5.0999241464887e-24
-7.2157500241214e-24
-1.0025805329785e-23
-1.3683495422839e-23
-1.8349782461876e-23
-2.4184288248844e-23
-3.1333810795953e-23
-3.9918699696052e-23
-5.0017905577464e-23
-6.1653871486868e-23
-7.4778712980483e-23
-8.926328323146e-23
-1.0489069382344e-22
-1.2135563500959e-22
-1.3827041214519e-22
-1.5517801952581e-22
-1.7157186987967e-22
-1.8692107034048e-22
-2.0069947763869e-22
-2.1241626680363e-22
-2.2164548133578e-22
-2.2805204124658e-22
-2.3141197411091e-22
-2.3162517046591e-22
-2.2871968221638e-22
-2.2284739171599e-22
-2.1427168095507e-22
-2.0334843100429e-22
-1.9050220592019e-22
-1.7619977467516e-22
-1.6092318337455e-22
-1.45144423499e-22
-7.9985900942271e-22
0
0
0
0
0
-4.6207624487931e-67
-4.0213641015099e-65
-1.7482649034163e-63
-3.2416373805838e-61
-2.3799950522689e-59
-1.5805843222962e-56
-1.3017262325493e-54
-5.5283799982918e-53
-1.5740648022658e-51
-3.3659931487249e-50
-5.7595454867582e-49
-8.2109142494385e-48
-1.0029461633094e-46
-1.0714234788484e-45
-1.0168529599005e-44
-8.6805642563654e-44
-6.7326102413141e-43
-4.7836455521544e-42
-3.1353957976693e-41
-1.9070114939322e-40
-1.0818231125558e-39
-5.7494901399715e-39
-2.8738663460709e-38
-1.3557141968408e-37
-6.054411981568e-37
-2.5667213737575e-36
-1.035552288553e-35
-3.9850596685092e-35
-1.4657599161511e-34
-5.1626862940763e-34
-1.744321119864e-33
-5.6625099214335e-33
-1.7687445822393e-32
-5.3234119289176e-32
-1.5457430573386e-31
-4.335336062847e-31
-1.1757866652191e-30
-3.0867818473149e-30
-7.851965638567e-30
-1.9370631565796e-29
-4.6384902057469e-29
-1.079021418589e-28
-2.4402671886731e-28
-5.3692508054952e-28
-1.1501572692217e-27
-2.4002174179762e-27
-4.8827199177772e-27
-9.6882526674398e-27
-1.876045867684e-26
-3.5472025134086e-26
-6.5522770799969e-26
-1.1829631230108e-25
-2.0884408584897e-25
-3.6069119182942e-25
-6.096677483562e-25
-1.0089492169131e-24
-1.6354244811767e-24
-2.5973864778155e-24
-4.0433457153544e-24
-6.1714990817052e-24
-9.2390550695398e-24
-1.3570249506671e-23
-1.9561530331954e-23
-2.7682111652232e-23
-3.8467974599906e-23
-5.2507505367787e-23
-7.0417375507261e-23
-9.280802104569e-23
-1.2023915204461e-22
-1.5316704996105e-22
-1.9188685123535e-22
-2.3647438334921e-22
-2.8673319436855e-22
-3.4215298042861e-22
-4.0188548985344e-22
-4.6474306816035e-22
-5.2922331331716e-22
-5.9356096468994e-22
-6.5580539567578e-22
-7.1391924844071e-22
-7.6589120864038e-22
-8.0985402105059e-22
-8.4419787289031e-22
-8.6766937954735e-22
-8.7944760906704e-22
-8.7919073771537e-22
-8.6704977002614e-22
-8.436489261683e-22
-8.10035407631e-22
-7.6760393455943e-22
-7.180034158008e-22
-6.6303418851199e-22
-6.0454439803681e-22
-5.4433335325942e-22
-2.9697455123786e-21
0
0
0
0
0
-2.8793262483263e-66
-2.5036638810525e-64
-1.0875163571612e-62
-2.2310633537064e-60
-1.65728048079e-58
-5.8992877352139e-56
-4.6714296342526e-54
-1.9620809496587e-52
-5.5586484878188e-51
-1.185220212053e-49
-2.0240783279626e-48
-2.8814613233719e-47
-3.515832049731e-46
-3.7527224053546e-45
-3.5592622315159e-44
-3.036915881979e-43
-2.3545434209045e-42
-1.6725053935478e-41
-1.0960389477182e-40
-6.6656984809103e-40
-3.7812520279175e-39
-2.0096444260171e-38
-1.0045839905709e-37
-4.7395071228991e-37
-2.1168723313403e-36
-8.9757058183963e-36
-3.6218985620075e-35
-1.3940511181018e-34
-5.1284963467117e-34
-1.8067116082427e-33
-6.1055830941987e-33
-1.9824328556503e-32
-6.1936175388536e-32
-1.8644898530614e-31
-5.4150077772246e-31
-1.519070367733e-30
-4.1207761684026e-30
-1.082067738088e-29
-2.7531397152935e-29
-6.7935855669705e-29
-1.6272043908033e-28
-3.7862667736787e-28
-8.5652557511154e-28
-1.8851466437024e-27
-4.039469161114e-27
-8.4325845591612e-27
-1.7160209006199e-26
-3.406155093138e-26
-6.5982379787782e-26
-1.248081731714e-25
-2.3063657496181e-25
-4.1657344540712e-25
-7.3575222733232e-25
-1.2712687499275e-24
-2.1497578114469e-24
-3.5592675736284e-24
-5.7718590801694e-24
-9.1709175633658e-24
-1.4282468955598e-23
-2.180883765722e-23
-3.2661795678464e-23
-4.79910371035e-23
-6.9202535027113e-23
-9.7960337463751e-23
-1.3616491713969e-22
-1.8590159699754e-22
-2.4935406894006e-22
-3.2868073453672e-22
-4.2585547524971e-22
-5.4247924096273e-22
-6.7957403673448e-22
-8.3737580283395e-22
-1.015146523461e-21
-1.2110278737168e-21
-1.4219581808195e-21
-1.6436710815437e-21
-1.8707880458667e-21
-2.0970083920966e-21
-2.3153904412966e-21
-2.5187072568981e-21
-2.699851334543e-21
-2.8522559222702e-21
-2.9702973589176e-21
-3.04964346941e-21
-3.0875176565033e-21
-3.0828563362682e-21
-3.0363477696972e-21
-2.9503518287037e-21
-2.8287113816407e-21
-2.6764754799522e-21
-2.4995613536517e-21
-2.3043857754267e-21
-2.0974964951995e-21
-1.8852314857852e-21
-1.0178342615762e-20
0
0
0
0
0
-1.5685259102172e-65
-1.3627056313525e-63
-5.914084441636e-62
-1.3207872061097e-59
-9.8960906749231e-58
-2.0991745808531e-55
-1.5659097408232e-53
-6.4632901290997e-52
-1.8170864225196e-50
-3.8580661939343e-49
-6.571109036189e-48
-9.3375288818716e-47
-1.1378476152582e-45
-1.2133834663267e-44
-1.150074712837e-43
-9.8085906404964e-43
-7.6026298908768e-42
-5.3997038540074e-41
-3.5385447752824e-40
-2.1521992454552e-39
-1.2210807932613e-38
-6.4912285549883e-38
-3.2457399535395e-37
-1.5317788443187e-36
-6.843906499112e-36
-2.9028979795554e-35
-1.171810129327e-34
-4.5118940987262e-34
-1.6604617074481e-33
-5.8517277588926e-33
-1.9782249511725e-32
-6.425344530943e-32
-2.0081105703872e-31
-6.0470638688163e-31
-1.7567957587784e-30
-4.9298616177986e-30
-1.3377295552662e-29
-3.513783507297e-29
-8.9429322833506e-29
-2.2074095858429e-28
-5.2888395509085e-28
-1.2310262009175e-27
-2.7857280805822e-27
-6.1332594638452e-27
-1.3146940568994e-26
-2.7455061754742e-26
-5.5892463855764e-26
-1.1098697779394e-25
-2.1509016900572e-25
-4.070319425614e-25
-7.5251303513814e-25
-1.3598301291075e-24
-2.4029118712721e-24
-4.1539534342996e-24
-7.0280563982308e-24
-1.164205588056e-23
-1.8888968389126e-23
-3.0028042338666e-23
-4.6788100668096e-23
-7.1478689784e-23
-1.0709960594691e-22
-1.5743498408796e-22
-2.2711386950581e-22
-3.2161584180599e-22
-4.4719877230774e-22
-6.1072714532989e-22
-8.1938437159062e-22
-1.0802615984755e-21
-1.3998285183062e-21
-1.7833076979869e-21
-2.2339913380308e-21
-2.7525557975506e-21
-3.3364419954012e-21
-3.9793762468617e-21
-4.6711040658786e-21
-5.3973977888175e-21
-6.1403777386576e-21
-6.8791577352939e-21
-7.5907921565887e-21
-8.2514675853237e-21
-8.8378518986258e-21
-9.3284917557033e-21
-9.7051391257772e-21
-9.9538905368544e-21
-1.006603902471e-20
-1.0038566363867e-20
-9.8742385551095e-21
-9.5813062146696e-21
-9.1728486509382e-21
-8.6658316427098e-21
-8.0799709031641e-21
-7.4365040248988e-21
-6.7569730464324e-21
-6.0621088391604e-21
-3.2380441690528e-20
0
0
0
0
0
-7.5884875422678e-65
-6.5870431262909e-63
-2.856283782005e-61
-6.856092777959e-59
-5.1706358402763e-57
-7.2128303085061e-55
-4.9563838010686e-53
-1.9934501004238e-51
-5.5408357747071e-50
-1.1692462294242e-48
-1.9840618617999e-47
-2.8124870330524e-46
-3.4215956961136e-45
-3.6446955258507e-44