# volumeFractionError   
# Time                  	Eshape                  	Emass                   	Ebound                  	tRec                    	Tadv                    	celltoCellDist          	Ncells                  	avg(CellVol)            
1                       	3.1538117072287836e-03	0.0000000000000000e+00	1.8198634075467480e-14	0.0000000000000000e+00	0.0000000000000000e+00	4.9999999999998317e-02	1.0000000000000000e+03	2.4999999999999667e-03
2                       	6.1770939036900705e-03	2.4980018054066022e-16	2.2653104254141584e-14	0.0000000000000000e+00	0.0000000000000000e+00	4.9999999999998317e-02	1.0000000000000000e+03	2.4999999999999667e-03
3                       	9.2081178871261903e-03	8.3266726846886741e-17	6.0176396104322419e-14	0.0000000000000000e+00	0.0000000000000000e+00	4.9999999999998317e-02	1.0000000000000000e+03	2.4999999999999667e-03
4                       	1.2191526985050539e-02	2.2204460492503131e-16	6.1766146011943074e-14	0.0000000000000000e+00	0.0000000000000000e+00	4.9999999999998317e-02	1.0000000000000000e+03	2.4999999999999667e-03
