/*--------------------------------*- C++ -*----------------------------------*\
| =========                 |                                                 |
| \\      /  F ield         | OpenFOAM: The Open Source CFD Toolbox           |
|  \\    /   O peration     | Version:  v1812                                 |
|   \\  /    A nd           | Web:      www.OpenFOAM.com                      |
|    \\/     M anipulation  |                                                 |
\*---------------------------------------------------------------------------*/
FoamFile
{
    version     2.0;
    format      ascii;
    class       volScalarField;
    location    "1";
    object      alpha.water;
}
// * * * * * * * * * * * * * * * * * * * * * * * * * * * * * * * * * * * * * //

dimensions      [0 0 0 0 0 0 0];


internalField   nonuniform List<scalar> 
6000
(
0
0
0
0
0
0
0
0
0
0
0
0
0
0
0
0
0
0
0
0
0
0
0
0
0
0
0
0
0
0
0
0
0
0
0
0
0
0
0
0
0
0
0
0
0
0
0
0
0
0
0
0
0
0
0
0
0
0
0
0
0
0
0
0
0
0
0
0
0
0
0
0
0
0
0
0
0
0
0
0
0
0
0
0
0
0
0
0
0
0
0
0
0
0
0
0
0
0
0
0
0
0
0
0
0
0
0
0
0
0
0
0
0
0
0
0
0
0
0
0
0
0
0
0
0
0
0
0
0
0
0
0
0
0
0
0
0
0
0
0
0
0
0
0
0
0
0
0
0
0
0
0
0
0
0
0
0
0
0
0
0
0
0
0
0
0
0
0
0
0
0
0
0
0
0
0
0
0
0
0
0
0
0
0
0
0
0
0
0
0
0
0
0
0
0
0
0
0
0
0
0
0
0
0
0
0
0
0
0
0
0
0
0
0
0
0
0
0
0
0
0
0
0
0
0
0
0
0
0
0
0
0
0
0
0
0
0
0
0
0
0
0
0
0
0
0
0
0
0
0
0
0
0
0
0
0
0
0
0
0
0
0
0
0
0
0
0
0
0
0
0
0
0
0
0
0
0
0
0
0
0
0
0
0
0
0
0
0
0
0
0
0
0
0
0
0
0
0
0
0
0
0
0
0
0
0
0
0
0
0
0
0
0
0
0
0
0
0
0
0
0
0
0
0
0
0
0
0
0
0
0
0
0
0
0
0
0
0
0
0
0
0
0
0
0
0
0
0
0
0
0
0
0
0
0
0
0
0
0
0
0
0
0
0
0
0
0
0
0
0
0
0
0
0
0
0
0
0
0
0
0
0
0
0
0
0
0
0
0
0
0
0
0
0
0
0
0
0
0
0
0
0
0
0
0
0
0
0
0
0
0
0
0
0
0
0
0
0
0
0
0
0
0
0
0
0
0
0
0
0
0
0
0
0
0
0
0
0
0
0
0
0
0
0
0
0
0
0
0
0
0
0
0
0
0
0
0
0
0
0
0
0
0
0
0
0
0
0
0
0
0
0
0
0
0
0
0
0
0
0
0
0
0
0
0
0
0
0
0
0
0
0
0
0
0
0
0
0
0
0
0
0
0
0
0
0
0
-1.8896446202686e-40
5.2343986077608e-38
1.1312328973422e-36
-1.0946448664404e-25
-2.2108572973171e-24
-2.2239353918907e-23
-1.4855680328803e-22
-7.4134511855159e-22
-2.9480203532157e-21
-9.7307708836638e-21
-2.7422110140677e-20
-6.7350642816217e-20
-1.4645517781542e-19
-2.854829533275e-19
-5.0388115137955e-19
-8.119845282176e-19
-1.2029859522417e-18
-1.6483097778983e-18
-2.0994176458463e-18
-2.4967196141248e-18
-2.7832101795023e-18
-2.9182828962649e-18
-2.8870268394644e-18
-2.7021864373289e-18
-2.3988448964834e-18
-2.0243771945636e-18
-1.6273290586312e-18
-1.2484458043341e-18
-9.1563603460379e-19
-6.4301946735642e-19
-4.3302207321224e-19
-2.8000794866557e-19
-1.7408161386973e-19
-1.041760289448e-19
-6.0074642588851e-20
-3.3417080033409e-20
-1.7948046831277e-20
-9.3159970682347e-21
-4.6770691149924e-21
-2.2729930321737e-21
-1.0701147407844e-21
-4.8840555947339e-22
-2.1624315621896e-22
-9.2938113430675e-23
-3.8797079540411e-23
-1.5740145392986e-23
-6.2095701096967e-24
-2.3833321862196e-24
-8.90418915793e-25
-3.2396454891556e-25
-1.148394620539e-25
-3.9679287419689e-26
-1.3368908051023e-26
-4.3939990574223e-27
-1.4093578215596e-27
-4.4130450795222e-28
-1.3494701439807e-28
-4.0312706840773e-29
-1.1768322820088e-29
-3.358271664216e-30
-9.3707692187306e-31
-2.5575105595294e-31
-6.8290822907075e-32
-1.7845366643732e-32
-4.5647615788236e-33
-1.143266472109e-33
-2.8042517059441e-34
-6.7379289056458e-35
-1.5862513794753e-35
-3.6597099342488e-36
-8.2763736231221e-37
-1.8350120730001e-37
-3.9895773341264e-38
-8.507165236233e-39
-1.7794715985291e-39
-3.651918404464e-40
-7.3544125761309e-41
-1.4535920674531e-41
-2.8201560024598e-42
-5.3716281114526e-43
-1.0046273601983e-43
-1.8451526521282e-44
-3.3284943551405e-45
-5.8980660809377e-46
-1.0267718067183e-46
-1.7562855906753e-47
-2.952064997952e-48
-4.8766013889729e-49
-7.9180552599635e-50
-1.2637975547619e-50
-1.9830810252924e-51
-3.0595118705988e-52
-5.4526166641152e-53
0
0
0
0
0
0
1.4443120096479e-39
3.1534280033267e-38
9.1210602385086e-37
1.4287861765222e-35
-1.0297809940335e-24
-2.0670411090658e-23
-2.0665268961215e-22
-1.3720024836648e-21
-6.8051754662062e-21
-2.6897989594299e-20
-8.8251539394791e-20
-2.4721714648963e-19
-6.0358868983141e-19
-1.3048085066985e-18
-2.5286467567746e-18
-4.43738787997e-18
-7.1099365238247e-18
-1.0474335708846e-17
-1.4271962607218e-17
-1.8078195574137e-17
-2.1383119474054e-17
-2.3709752102087e-17
-2.4729966040998e-17
-2.4338732360965e-17
-2.2664678490773e-17
-2.0019796182466e-17
-1.6811560621718e-17
-1.3448892643238e-17
-1.0268575498841e-17
-7.4959509819e-18
-5.2399165130826e-18
-3.5126799877053e-18
-2.26129858039e-18
-1.3996801886048e-18
-8.3398841391982e-19
-4.7887943012408e-19
-2.6525964040139e-19
-1.4187664409461e-19
-7.3339143432043e-20
-3.6670191620613e-20
-1.7749613596953e-20
-8.3231830401003e-21
-3.7837575092721e-21
-1.6687158526999e-21
-7.1440317938952e-22
-2.9707680466394e-22
-1.2006262691586e-22
-4.718433270262e-23
-1.8041159860013e-23
-6.714643129995e-24
-2.4337644390526e-24
-8.5946320133531e-25
-2.9583973600823e-25
-9.9299116796027e-26
-3.2513629603697e-26
-1.0389174331773e-26
-3.2407808095471e-27
-9.8723934344494e-28
-2.9379506538538e-28
-8.5438799562808e-29
-2.4287807344042e-29
-6.751073054999e-30
-1.8354077216118e-30
-4.8818770968446e-31
-1.2707220289643e-31
-3.2376835998781e-32
-8.0769071288259e-33
-1.9732654499493e-33
-4.7223148792411e-34
-1.1072588964189e-34
-2.544255381806e-35
-5.7303192597322e-36
-1.2652891863107e-36
-2.7395358456516e-37
-5.81729316715e-38
-1.2117124337188e-38
-2.4762137365307e-39
-4.9654597767844e-40
-9.7720127830437e-41
-1.8876868623764e-41
-3.5798364899202e-42
-6.6657274368435e-43
-1.2188346589249e-43
-2.1888434502839e-44
-3.8611363069126e-45
-6.6911706703772e-46
-1.1392783652836e-46
-1.906122722838e-47
-3.1341224042823e-48
-5.0649403510824e-49
-8.0458814172954e-50
-1.2564925876632e-50
-1.9292027145336e-51
-3.4186096310445e-52
0
0
0
0
0
8.838585042582e-41
7.5858180351794e-39
1.738281418874e-37
5.0567938856218e-36
7.8270027673476e-35
-4.8110755291471e-24
-9.5951045489896e-23
-9.5307566559435e-22
-6.2865310332353e-21
-3.0977865205941e-20
-1.2164018448358e-19
-3.9647678609009e-19
-1.1033427790947e-18
-2.6761679307306e-18
-5.7473795216665e-18
-1.1065709823574e-17
-1.9293480824178e-17
-3.0716508231404e-17
-4.4966892449097e-17
-6.0891087800246e-17
-7.6661550501336e-17
-9.0136286931845e-17
-9.936176151159e-17
-1.0304815139813e-16
-1.0085608957889e-16
-9.3412666251902e-17
-8.2079199046759e-17
-6.8574691155535e-17
-5.4586976472035e-17
-4.1478426003112e-17
-3.0137639307019e-17
-2.0971798872465e-17
-1.3996977312299e-17
-8.972021248395e-18
-5.530276628872e-18
-3.2817771575301e-18
-1.8769296250308e-18
-1.035627842525e-18
-5.5180862879465e-19
-2.8417712539041e-19
-1.4156936429609e-19
-6.8276540984057e-20
-3.1902076890434e-20
-1.4451634921148e-20
-6.35118207455e-21
-2.7096023835579e-21
-1.1228710265435e-21
-4.5224568022179e-22
-1.7712265967441e-22
-6.7492059833776e-23
-2.5033604268474e-23
-9.0425259497491e-24
-3.1823376158082e-24
-1.0916382250322e-24
-3.6514476829435e-25
-1.1914494867602e-25
-3.7937930577895e-26
-1.1792765255273e-26
-3.5797437147407e-27
-1.061516552871e-27
-3.0759466961149e-28
-8.7124708195686e-29
-2.412918156043e-29
-6.5359087501346e-30
-1.732009766864e-30
-4.4914869108946e-31
-1.1400810178895e-31
-2.8333057352903e-32
-6.8955024546558e-33
-1.643811984115e-33
-3.839261274985e-34
-8.7870834978701e-35
-1.9712082127494e-35
-4.3350787256093e-36
-9.3480580745908e-37
-1.9769065488356e-37
-4.1008032611879e-38
-8.3453575529009e-39
-1.6664292497646e-39
-3.2656155141001e-40
-6.281270502622e-41
-1.186041952867e-41
-2.1988035193091e-42
-4.0028403891485e-43
-7.1565759150922e-44
-1.2567683130603e-44
-2.1680735764867e-45
-3.674648499045e-46
-6.1197402581848e-47
-1.0015584793703e-47
-1.6109975601907e-48
-2.5470427916353e-49
-3.9586435913257e-50
-6.0488094020603e-51
-1.0657617974921e-51
0
0
0
0
0
9.5705670942952e-40
-1.4406778991002e-37
-2.8690677748565e-36
-1.6530719115751e-35
5.9977570772595e-35
-1.4882682325429e-23
-2.9482444781827e-22
-2.9084914257759e-21
-1.9051509304625e-20
-9.3217712816853e-20
-3.6415705480633e-19
-1.1861158161298e-18
-3.3180493851324e-18
-8.1360931100835e-18
-1.7735856074815e-17
-3.4717960559977e-17
-6.1494763995355e-17
-9.9185184478162e-17
-1.4649480222051e-16
-1.991770379732e-16
-2.5052902854193e-16
-2.9291065242234e-16
-3.1975541699448e-16
-3.2729065093613e-16
-3.1534027642168e-16
-2.8702201607593e-16
-2.4760498661e-16
-2.0304346378542e-16
-1.5868764379095e-16
-1.184757383425e-16
-8.4670863774821e-17
-5.802736901699e-17
-3.8194889700368e-17
-2.4179479356154e-17
-1.4739529811233e-17
-8.6613017128571e-18
-4.9109605944256e-18
-2.6891600847027e-18
-1.4232684777302e-18
-7.2862801379836e-19
-3.6106308148906e-19
-1.7330522550449e-19
-8.0625247579538e-20
-3.637716280535e-20
-1.5927284630213e-20
-6.77106084907e-21
-2.7964776193946e-21
-1.1226240836303e-21
-4.3827420418572e-22
-1.6647840889198e-22
-6.1556549108509e-23
-2.2166191495217e-23
-7.776729168459e-24
-2.6593365285901e-24
-8.8673614583251e-25
-2.8842170642542e-25
-9.1545090679817e-26
-2.8364213295557e-26
-8.5819117777566e-27
-2.5364035742644e-27
-7.325067821173e-28
-2.0677438231615e-28
-5.7069159136496e-29
-1.5404550651959e-29
-4.0677858132522e-30
-1.0510974195641e-30
-2.6583611271805e-31
-6.5822965712861e-32
-1.5960113360058e-32
-3.7904307506269e-33
-8.8192328849196e-34
-2.0107357425259e-34
-4.4931433207047e-35
-9.8424395621902e-36
-2.1139547132572e-36
-4.4525569653064e-37
-9.1986044595431e-38
-1.8642676477672e-38
-3.7071586459851e-39
-7.2342085577407e-40
-1.3855617504013e-40
-2.6050232862676e-41
-4.8085255097908e-42
-8.7154236553657e-43
-1.5513187306427e-43
-2.7121099957945e-44
-4.6576110248266e-45
-7.858197130484e-46
-1.3026831893027e-46
-2.1220792845835e-47
-3.3973508999553e-48
-5.345923347358e-49
-8.2690298407235e-50
-1.2574201213127e-50
-2.2028568385547e-51
0
0
0
0
0
-1.2343304023915e-39
-1.7340352142055e-36
-3.3758223694729e-35
-2.9967470583679e-34
-1.4633822297871e-33
-3.4291868956411e-23
-6.7453526916214e-22
-6.6063458634609e-21
-4.3607371776383e-20
-2.1733972872176e-19
-8.6982311017943e-19
-2.9103634845177e-18
-8.3682916373414e-18
-2.1099950450456e-17
-4.7416254507801e-17
-9.619811928378e-17
-1.7778641311138e-16
-3.008166785359e-16
-4.6695273883172e-16
-6.6543408804935e-16
-8.7111533195204e-16
-1.0490056729977e-15
-1.1647184519922e-15
-1.1961815059682e-15
-1.1407673923953e-15
-1.0146658280361e-15
-8.456939518108e-16
-6.637130653057e-16
-4.9289691282481e-16
-3.4804474681788e-16
-2.3475479591608e-16
-1.5189010157442e-16
-9.4621793545402e-17
-5.6929424472186e-17
-3.3159103336501e-17
-1.872955249272e-17
-1.0270279513259e-17
-5.4704767881856e-18
-2.8311492367524e-18
-1.4236759493464e-18
-6.9557920102916e-19
-3.3017342176402e-19
-1.5226157086428e-19
-6.8220451041901e-20
-2.9701076742249e-20
-1.2567591233542e-20
-5.1697541932814e-21
-2.068056968984e-21
-8.0478874380533e-22
-3.0478268295812e-22
-1.1237140863772e-22
-4.0350529598325e-23
-1.411696432579e-23
-4.8139441450303e-24
-1.6006423954401e-24
-5.1913825833027e-25
-1.6429509265602e-25
-5.075414569756e-26
-1.5309865345463e-26
-4.5109359082919e-27
-1.2986583758712e-27
-3.65417070446e-28
-1.0052551770486e-28
-2.7044610383329e-29
-7.1173938022435e-30
-1.832786192855e-30
-4.6191680794724e-31
-1.1396817116296e-31
-2.7534310068383e-32
-6.5153084945419e-33
-1.5102952319191e-33
-3.4304209429356e-34
-7.6362673188313e-35
-1.6662853838743e-35
-3.5648043021625e-36
-7.4786074975193e-37
-1.5388012402758e-37
-3.1059643611762e-38
-6.1508549701267e-39
-1.1952812685228e-39
-2.2796520843909e-40
-4.2677292463193e-41
-7.8436613567413e-42
-1.415455723525e-42
-2.5083550787697e-43
-4.3657099533215e-44
-7.4636262923673e-45
-1.2535112564431e-45
-2.0684374651191e-46
-3.3538460962968e-47
-5.3441615424236e-48
-8.3694957143472e-49
-1.2883927899851e-49
-1.9497147773444e-50
-3.3961527249101e-51
0
0
0
0
0
-7.2057955049567e-33
-1.49959426317e-31
-1.552820363428e-30
-1.066365914348e-29
-5.4621534289835e-29
-6.2774380827052e-23
-1.2256576527707e-21
-1.191212614757e-20
-8.1199225824687e-20
-4.2801425203865e-19
-1.8161109486322e-18
-6.3793124790672e-18
-1.8981896879989e-17
-4.8923452995967e-17
-1.1169074271465e-16
-2.3026243843707e-16
-4.3406502071034e-16
-7.5168405303065e-16
-1.1948952601507e-15
-1.7390839470034e-15
-2.3133717212623e-15
-2.812809861103e-15
-3.1319762206309e-15
-3.2038703644602e-15
-3.0233286145582e-15
-2.6439644721537e-15
-2.1534207086342e-15
-1.6418567670965e-15
-1.1780578614048e-15
-7.9976045863048e-16
-5.1650480629732e-16
-3.1904345931385e-16
-1.8946957408191e-16
-1.086968647203e-16
-6.0488359508822e-17
-3.2757792705829e-17
-1.7302996807391e-17
-8.9255066935908e-18
-4.4979337988056e-18
-2.213841360934e-18
-1.0635318930838e-18
-4.9828318763188e-19
-2.2750149055035e-19
-1.0115591148889e-19
-4.378159942753e-20
-1.8439997041825e-20
-7.5569858268504e-21
-3.0134682505348e-21
-1.1694328624392e-21
-4.4174458572878e-22
-1.6247127144028e-22
-5.8200995719402e-23
-2.0313380017622e-23
-6.9101397860368e-24
-2.2919291774974e-24
-7.4144955633762e-25
-2.3403575711551e-25
-7.2103085695971e-26
-2.1689191984386e-26
-6.3722567654976e-27
-1.8291168488641e-27
-5.1312268037875e-28
-1.407217537061e-28
-3.7738593269817e-29
-9.8995259528626e-30
-2.5407553012871e-30
-6.3817892918814e-31
-1.5691365653323e-31
-3.7776470495797e-32
-8.906855861272e-33
-2.0571522964281e-33
-4.6552248128085e-34
-1.0323740369695e-34
-2.2441021198317e-35
-4.7823488642271e-36
-9.9934194787491e-37
-2.0480455363066e-37
-4.1171198304071e-38
-8.1198699634304e-39
-1.5713652456631e-39
-2.9843256772131e-40
-5.5631727053032e-41
-1.0180525815308e-41
-1.8291579641337e-42
-3.227197398861e-43
-5.5917944499585e-44
-9.5166559631509e-45
-1.591033701298e-45
-2.6132972144927e-46
-4.2175819102499e-47
-6.6888702060733e-48
-1.0425674613861e-48
-1.5972165525336e-49
-2.4053388019769e-50
-4.1657694339374e-51
0
0
0
0
0
-7.5784880574249e-32
-1.5712463529569e-30
-1.6211996631556e-29
-3.7616491523226e-26
-6.2661307030576e-25
-1.0028196130759e-22
-1.8706753694911e-21
-1.7875445609739e-20
-1.2970334552883e-19
-7.4890337098818e-19
-3.426300614537e-18
-1.261393368314e-17
-3.832088882101e-17
-9.8905862746568e-17
-2.234548931164e-16
-4.5351450584985e-16
-8.410458352722e-16
-1.4536919678495e-15
-2.3869787347262e-15
-3.7190930262522e-15
-5.3754240614977e-15
-7.0298422988925e-15
-8.2039376657367e-15
-8.5261811707801e-15
-7.9356679270963e-15
-6.6783857393468e-15
-5.1394073642966e-15
-3.6591592517453e-15
-2.4378111894245e-15
-1.5357594209028e-15
-9.2338425419346e-16
-5.3407617449158e-16
-2.9908141599358e-16
-1.6299000724221e-16
-8.6777755448751e-17
-4.5262240768718e-17
-2.3167923056428e-17
-1.1645785301752e-17
-5.7478040328108e-18
-2.7829571185879e-18
-1.3201178748535e-18
-6.125980007855e-19
-2.7769641239859e-19
-1.2281637398609e-19
-5.2943135923524e-20
-2.2229522476838e-20
-9.0872344233545e-21
-3.6159747749092e-21
-1.4005513632251e-21
-5.2807874821685e-22
-1.9387070544236e-22
-6.9319612758265e-23
-2.4147142557484e-23
-8.1976139664976e-24
-2.7131479733291e-24
-8.757456778492e-25
-2.7577484893792e-25
-8.4752940793566e-26
-2.5428826718233e-26
-7.4509767188428e-27
-2.1328235703381e-27
-5.9660435793798e-28
-1.6313155705932e-28
-4.3614946673158e-29
-1.1405117801735e-29
-2.9177507443562e-30
-7.3045473480796e-31
-1.7899620345326e-31
-4.2944200809109e-32
-1.0089659337658e-32
-2.3219735111794e-33
-5.2352916522825e-34
-1.156693143878e-34
-2.5048213362181e-35
-5.3174239859993e-36
-1.1068110976511e-36
-2.2592919365392e-37
-4.5234950121569e-38
-8.8848993677388e-39
-1.7122958181684e-39
-3.2383355152873e-40
-6.0110210530535e-41
-1.0952730739007e-41
-1.959325572569e-42
-3.4416053711339e-43
-5.9366858350076e-44
-1.0058007526967e-44
-1.6738605020203e-45
-2.736646665127e-46
-4.3960374483326e-47
-6.9389952396236e-48
-1.0763960554964e-48
-1.6410964116049e-49
-2.4593891741608e-50
-4.2348677942409e-51
0
0
0
0
0
-3.9687148193162e-31
-8.1976045493502e-30
-8.4278156972226e-29
-3.3392957523958e-25
-5.5434502169526e-24
-1.6830618537419e-22
-2.6050142881018e-21
-2.3525994874915e-20
-1.8570207670812e-19
-1.1920097964937e-18
-5.832833561944e-18
-2.2107265794246e-17
-6.7294422219702e-17
-1.7083214406459e-16
-3.7471298078517e-16
-7.3194045441416e-16
-1.3001773772891e-15
-2.1740976125469e-15
-3.550442363831e-15
-5.9123118708798e-15
-9.6339329588049e-15
-1.4035570568211e-14
-1.738486148182e-14
-1.8201053787911e-14
-1.635229585812e-14
-1.2887969157822e-14
-9.1211108204879e-15
-5.9282810679386e-15
-3.6114268132281e-15
-2.0978615834659e-15
-1.1775459206829e-15
-6.445092908406e-16
-3.458729982057e-16
-1.8252449237974e-16
-9.4858025802892e-17
-4.8580272672081e-17
-2.452108475434e-17
-1.219439879938e-17
-5.9695177698749e-18
-2.8726347385854e-18
-1.3565607132482e-18
-6.2750107029973e-19
-2.8381723427825e-19
-1.2532732706311e-19
-5.3964259010533e-20
-2.2637910707784e-20
-9.2467179609441e-21
-3.6764308832321e-21
-1.4226910430664e-21
-5.3587951432767e-22
-1.965046613519e-22
-7.0167944442737e-23
-2.4406092221445e-23
-8.2717665792658e-24
-2.7327063211872e-24
-8.8031733907964e-25
-2.7662657009808e-25
-8.4822571905022e-26
-2.5388850303757e-26
-7.4205424921341e-27
-2.1185156600622e-27
-5.9097444103921e-28
-1.6113114326168e-28
-4.2952856195691e-29
-1.1197722798962e-29
-2.8556915427303e-30
-7.1260891463831e-31
-1.7404431496196e-31
-4.1614368674982e-32
-9.7432545008384e-33
-2.2342962310229e-33
-5.0193629385449e-34
-1.1048908507819e-34
-2.3836453495819e-35
-5.0408159250617e-36
-1.0451520015112e-36
-2.1249911528073e-37
-4.237510118514e-38
-8.2892378394291e-39
-1.5908910701937e-39
-2.9961090648242e-40
-5.5377473561032e-41
-1.004689306638e-41
-1.7894359775402e-42
-3.1292974024635e-43
-5.3738105328028e-44
-9.0631530219484e-45
-1.50138640888e-45
-2.4432888118506e-46
-3.9064071402535e-47
-6.1369149917168e-48
-9.4741556425867e-49
-1.4374576245702e-49
-2.1436728464681e-50
-3.6698975479364e-51
0
0
0
0
0
-1.379802656747e-30
-2.8393557124408e-29
-2.9084538765328e-28
-1.4772246527037e-24
-2.4425982753564e-23
-3.3784184094404e-22
-3.7045216139467e-21
-2.9168814826946e-20
-2.4627878283893e-19
-1.7258490833634e-18
-8.8161770543864e-18
-3.3724993528748e-17
-1.0145209839489e-16
-2.5080991850901e-16
-5.292419753743e-16
-9.8364087988318e-16
-1.6473086762383e-15
-2.5870608394526e-15
-3.9848164610793e-15
-6.4538121916217e-15
-1.0360361428263e-14
-1.462796628894e-14
-1.7199433278844e-14
-1.6916474375006e-14
-1.4317426859771e-14
-1.0760177815396e-14
-7.3791655958961e-15
-4.7191100918569e-15
-2.8630971467475e-15
-1.6701730014544e-15
-9.4603389423436e-16
-5.2368175912165e-16
-2.8434164243896e-16
-1.5171858812168e-16
-7.9628906613851e-17
-4.1130105886639e-17
-2.0912094345992e-17
-1.0464080120654e-17
-5.1494790282731e-18
-2.4891550095178e-18
-1.1799625946655e-18
-5.4757211227679e-19
-2.4832702897916e-19
-1.0989170105655e-19
-4.7396687375713e-20
-1.9906860520392e-20
-8.1375642475365e-21
-3.236706773448e-21
-1.2525679984176e-21
-4.7165952610126e-22
-1.7285204584063e-22
-6.166824194298e-23
-2.1425625209779e-23
-7.2518119884047e-24
-2.3920103029474e-24
-7.692141595438e-25
-2.4124726840898e-25
-7.3819097639478e-26
-2.2045627343809e-26
-6.4279880419402e-27
-1.8305133810724e-27
-5.0928064871525e-28
-1.3847259441527e-28
-3.6806433690033e-29
-9.5667145857485e-30
-2.432216329879e-30
-6.0500426432348e-31
-1.4727996767002e-31
-3.5096668018002e-32
-8.1889646943043e-33
-1.871255627309e-33
-4.1886559870026e-34
-9.1864277789951e-35
-1.9744158764913e-35
-4.1594604945497e-36
-8.5906319999793e-37
-1.7397361314646e-37
-3.4553290856959e-38
-6.7315974036043e-39
-1.2865950634566e-39
-2.4128511118204e-40
-4.440701255119e-41
-8.0217697306703e-42
-1.4224907177657e-42
-2.4765677360836e-43
-4.2338100504561e-44
-7.1080394053532e-45
-1.1720890302078e-45
-1.898527478312e-46
-3.0211348871739e-47
-4.7235662928575e-48
-7.2571259788319e-49
-1.0957223998429e-49
-1.6260076438219e-50
-2.7675065401488e-51
0
0
0
0
0
-3.5828610895637e-30
-7.3448616235427e-29
-7.4957427807524e-28
-4.3392257051346e-24
-7.1459045635441e-23
-7.1987850868085e-22
-5.7194968091801e-21
-3.6718973266828e-20
-3.080023388973e-19
-2.2499806462483e-18
-1.1672982849898e-17
-4.4397015727791e-17
-1.309819529226e-16
-3.1416619254129e-16
-6.3618586135363e-16
-1.1209067813804e-15
-1.756256030156e-15
-2.534957597569e-15
-3.5086108255453e-15
-4.9732625682322e-15
-6.7881897249945e-15
-7.5658825162507e-15
-5.7646794814723e-15
-2.9039934838365e-15
-1.119360526592e-15
-3.8523109793354e-16
-1.0084342267628e-15
-1.1610392278768e-15
-1.0233369736303e-15
-7.5126811761312e-16
-4.9237761239071e-16
-3.0080734338386e-16
-1.751468007435e-16
-9.8358384149437e-17
-5.365303440975e-17
-2.8554934081526e-17
-1.4867664369558e-17
-7.5835339098421e-18
-3.7904595867726e-18
-1.8555083846923e-18
-8.8858864249057e-19
-4.1572473881852e-19
-1.8974708432002e-19
-8.4387962656596e-20
-3.6535174972917e-20
-1.5388100665167e-20
-6.3028950028379e-21
-2.5102445061843e-21
-9.7214782570453e-22
-3.6615700042472e-22
-1.3416548185515e-22
-4.7840916220862e-23
-1.6607594166096e-23
-5.6148031457054e-24
-1.8495166914655e-24
-5.9381728397871e-25
-1.8590472517104e-25
-5.6772614852101e-26
-1.6918463801775e-26
-4.9216822113929e-27
-1.3981316430355e-27
-3.8798045395059e-28
-1.0520554776563e-28
-2.7884871666268e-29
-7.2265124144767e-30
-1.8316510550256e-30
-4.5418160415449e-31
-1.1020554452513e-31
-2.6174255307166e-32
-6.0862233277692e-33
-1.3858804477775e-33
-3.0910486728238e-34
-6.7543309507175e-35
-1.4462587649468e-35
-3.0351789102104e-36
-6.2442675520298e-37
-1.2595601123048e-37
-2.4915801930468e-38
-4.8342047537775e-39
-9.2011560062365e-40
-1.7182936176077e-40
-3.14889375376e-41
-5.6635660854275e-42
-9.9990034844508e-43
-1.7330837289237e-43
-2.9494271487445e-44
-4.9291080471254e-45
-8.0903414438769e-46
-1.3043275644967e-46
-2.0657581525802e-47
-3.2143651153081e-48
-4.9145317048988e-49
-7.3839192928499e-50
-1.0903218156376e-50
-1.8449218358196e-51
0
0
0
0
0
-7.4115703123682e-30
-1.5135493960092e-28
-1.5388221335787e-27
-9.5201595114812e-24
-1.5614198055109e-22
-1.3909342075522e-21
-9.0815203592738e-21
-4.8169273352122e-20
-3.6479753198518e-19
-2.6233029017175e-18
-1.3488877693891e-17
-5.0490729544898e-17
-1.4554269684108e-16
-3.3850936085487e-16
-6.584360484987e-16
-1.1004499647711e-15
-1.6091452297213e-15
-2.1077425941726e-15
-2.5257434994892e-15
-2.8166105034393e-15
-2.5848728572291e-15
-4.0618422499751e-16
0.20064843112971
0.6688653532899
0.89271935178082
0.90306081564464
0.72778803827049
0.31528292757236
0.0013698614742056
-2.0941478439983e-16
-1.9071033507251e-16
-1.3545276649905e-16
-8.735762709292e-17
-5.2835338454973e-17
-3.0469086749545e-17
-1.6928533735091e-17
-9.1195263007855e-18
-4.780641916494e-18
-2.4428592302757e-18
-1.2172697957074e-18
-5.9126932978235e-19
-2.7974197757322e-19
-1.2880333756497e-19
-5.7671467999939e-20
-2.5096524669546e-20
-1.0610577463462e-20
-4.3579818406999e-21
-1.7389200823125e-21
-6.7423188019598e-22
-2.541006685407e-22
-9.3117209774356e-23
-3.3194068205732e-23
-1.1515576434655e-23
-3.8895318307282e-24
-1.2796362670202e-24
-4.1024287533888e-25
-1.2821637995444e-25
-3.9081438230447e-26
-1.1622302974752e-26
-3.3734309743337e-27
-9.560181130522e-28
-2.6462156235631e-28
-7.1563739919287e-29
-1.8915044964208e-29
-4.8876534348156e-30
-1.2350905160542e-30
-3.0529805460233e-31
-7.3840182604229e-32
-1.747901357717e-32
-4.0504572743679e-33
-9.1908891044684e-34
-2.0425688720351e-34
-4.4468983230859e-35
-9.4861719542416e-36
-1.9832006545368e-36
-4.0641478136707e-37
-8.1654795207641e-38
-1.6087274375504e-38
-3.1084808431224e-39
-5.8918615557897e-40
-1.0956366392527e-40
-1.9992118302665e-41
-3.5801030295883e-42
-6.2927516398691e-43
-1.0858147234425e-43
-1.8395031486216e-44
-3.0600787132122e-45
-4.9992809075243e-46
-8.0219344659317e-47
-1.2644429513174e-47
-1.9580244625655e-48
-2.9790941043874e-49
-4.4539406066199e-50
-6.5440104360146e-51
-1.1008037042607e-51
0
0
0
0
0
-1.2722665443681e-29
-2.5880758177642e-28
-2.6212008930434e-27
-1.663977442193e-23
-2.7180139183547e-22
-2.298987484335e-21
-1.357610679786e-20
-6.3265609565302e-20
-4.0773167837241e-19
-2.7386364242204e-18
-1.3670074264069e-17
-4.9979351192662e-17
-1.4047533365915e-16
-3.1751952841587e-16
-5.9636364277122e-16
-9.5090090780408e-16
-1.3010957797514e-15
-1.536774200973e-15
-1.5418282599252e-15
-1.1922307823926e-15
-1.5462778712698e-16
0.40755785342925
0.9914117558428
1
1
1
1
1
0.56786930563591
0.0022302791181581
-5.5533417753373e-17
-5.0822183584261e-17
-3.7317726167332e-17
-2.4674661133502e-17
-1.5185778043022e-17
-8.8679264835324e-18
-4.9688153074487e-18
-2.6881645292451e-18
-1.4088735280741e-18
-7.1641700860967e-19
-3.5363206380723e-19
-1.6943875074422e-19
-7.8785796897483e-20
-3.5543436443161e-20
-1.5555985940155e-20
-6.6050490059918e-21
-2.7212598986293e-21
-1.0881924009147e-21
-4.2252026943185e-22
-1.5936249093716e-22
-5.8415424487573e-23
-2.0820233697852e-23
-7.21897914696e-24
-2.4361904068788e-24
-8.0057131166518e-25
-2.5629704919809e-25
-7.9971612525024e-26
-2.4331152827797e-26
-7.2210776083822e-27
-2.0913362487896e-27
-5.9127657527676e-28
-1.6325165713144e-28
-4.4032454214626e-29
-1.1605885260513e-29
-2.9902622940775e-30
-7.5334801421643e-31
-1.8563573679111e-31
-4.4753410302397e-32
-1.0558529304791e-32
-2.4383888923668e-33
-5.5135317097477e-34
-1.2209140970571e-34
-2.6482909091124e-35
-5.6281401775387e-36
-1.1721211121702e-36
-2.3926258599276e-37
-4.7880089763913e-38
-9.3949193134785e-39
-1.8078660231281e-39
-3.4123132080008e-40
-6.3184811160901e-41
-1.1479601571689e-41
-2.0467178574505e-42
-3.5815463146036e-43
-6.1521475788229e-44
-1.0374961715435e-44
-1.7179391901804e-45
-2.7934863641602e-46
-4.4612530483631e-47
-6.998273347543e-48
-1.0784477823635e-48
-1.6327896465182e-49
-2.429021245806e-50
-3.5509765855998e-51
-5.9380076757065e-52
0
0
0
0
0
-1.8640541408079e-29
-3.777011936123e-28
-3.8104226117355e-27
-2.4134435915926e-23
-3.9261717489384e-22
-3.2391405464798e-21
-1.8184735158415e-20
-7.8602276585718e-20
-4.2748438226626e-19
-2.5798110714262e-18
-1.227325850106e-17
-4.353411319937e-17
-1.1910126216954e-16
-2.6265927791856e-16
-4.8068836534662e-16
-7.3945801663424e-16
-9.5570842308503e-16
-1.0214973836094e-15
-8.4168390246891e-16
-3.270577059903e-16
0.22890474865344
0.99626881589462
1
1
1
1
1
1
1
0.33482072480521
-1.3090985062908e-17
-1.6509862296056e-17
-1.4314018000637e-17
-1.0428722408465e-17
-6.8647385128344e-18
-4.2192696843696e-18
-2.4617822412547e-18
-1.3757147347741e-18
-7.3997731984961e-19
-3.8414413181294e-19
-1.9274280060243e-19
-9.3540083227013e-20
-4.3928339462697e-20
-1.9969536366296e-20
-8.7906375854772e-21
-3.7486812932881e-21
-1.5493365754794e-21
-6.2093757409981e-22
-2.414494136832e-22
-9.1144333060199e-23
-3.3420252737716e-23
-1.1910085230762e-23
-4.1275052504496e-24
-1.3917539219643e-24
-4.5684031543715e-25
-1.4605241352873e-25
-4.5498867190726e-26
-1.381768563033e-26
-4.0925950495616e-27
-1.1826815414258e-27
-3.3358824498961e-28
-9.1872979822031e-29
-2.4714495131767e-29
-6.4960330762116e-30
-1.6688461483281e-30
-4.191686519225e-31
-1.0296573288254e-31
-2.474284183803e-32
-5.8180272437149e-33
-1.3390066420493e-33
-3.0170147690382e-34
-6.656753057962e-35
-1.4385873738729e-35
-3.0457442266858e-36
-6.31865905587e-37
-1.2847485868244e-37
-2.5606912502254e-38
-5.0040666081521e-39
-9.5894498280132e-40
-1.8023707615852e-40
-3.3231256865844e-41
-6.0113407430007e-42
-1.0670508906373e-42
-1.8588870813196e-43
-3.1786124254156e-44
-5.3357964036459e-45
-8.7942001487759e-46
-1.423263016926e-46
-2.2621430718597e-47
-3.5314540058245e-48
-5.4154720230814e-49
-8.1586314446106e-50
-1.2076576328585e-50
-1.7565540676296e-51
-2.9198800325519e-52
0
0
0
0
0
-2.3795544533913e-29
-4.8023521752554e-28
-4.8255855769336e-27
-2.9877078036287e-23
-4.8405651300585e-22
-3.9382254121153e-21
-2.1519067471035e-20
-8.9167189054378e-20
-4.1808282536556e-19
-2.2173289953188e-18
-9.8878915892354e-18
-3.3786416717919e-17
-8.9774207887275e-17
-1.9384444365767e-16
-3.4881295895097e-16
-5.2428964458824e-16
-6.4944752069606e-16
-6.3977790248324e-16
-4.3670451336015e-16
-3.6060619143898e-17
0.70870756519967
1
1
1
1
1
1
1
1
0.76912706045181
-3.3375123077584e-18
-5.2825374654312e-18
-5.2005832454415e-18
-4.1221870085098e-18
-2.8873117995391e-18
-1.8624037725379e-18
-1.1291819231706e-18
-6.5073348235187e-19
-3.5874129028724e-19
-1.8991436823741e-19
-9.677213991068e-20
-4.7535779851978e-20
-2.2534251531092e-20
-1.0318142309449e-20
-4.5670910845945e-21
-1.9556271771385e-21
-8.1070515263418e-22
-3.2560276110303e-22
-1.267866083508e-22
-4.7898557901436e-23
-1.7568243370158e-23
-6.259967746593e-24
-2.1683116125835e-24
-7.3051940324911e-25
-2.3952100889645e-25
-7.6469054643737e-26
-2.3783416727796e-26
-7.2096427938758e-27
-2.1310710161815e-27
-6.1448364295179e-28
-1.7291198104017e-28
-4.7501525707201e-29
-1.2744269584895e-29
-3.3403877178262e-30
-8.5564949013375e-31
-2.1426338330549e-31
-5.2466591942575e-32
-1.2566797020674e-32
-2.9450440413292e-33
-6.7545736901165e-34
-1.5165326706796e-34
-3.3339376950721e-35
-7.1781910900509e-36
-1.5139805594498e-36
-3.1287109319645e-37
-6.3363468441898e-38
-1.2578414094177e-38
-2.4479813954156e-39
-4.6715861887e-40
-8.7432009647194e-41
-1.6050901030966e-41
-2.8908235775259e-42
-5.1086339590455e-43
-8.8596056673522e-44
-1.5080420979688e-44
-2.5197812393969e-45
-4.1335311094163e-46
-6.658022132171e-47
-1.0531484527936e-47
-1.6360895838586e-48
-2.4965982263426e-49
-3.7425148682622e-50
-5.5118731887927e-51
-7.9763016622455e-52
-1.3179479133598e-52
0
0
0
0
0
-2.6885433116487e-29
-5.4040708911704e-28
-5.4082677142493e-27
-3.222530692434e-23
-5.1996833222807e-22
-4.1921532098281e-21
-2.2544279396965e-20
-9.1149596240062e-20
-3.7982283379685e-19
-1.7592581053068e-18
-7.2483618885254e-18
-2.3671732559023e-17
-6.0901404614053e-17
-1.2888786921041e-16
-2.292063529734e-16
-3.3964808957896e-16
-4.091378688918e-16
-3.8156856581618e-16
-2.3100214957195e-16
0
0.9309469266952
1
1
1
1
1
1
1
1
0.96026967420725
-9.3871722541682e-19
-1.7021077661028e-18
-1.8363167499247e-18
-1.5579204417976e-18
-1.150620390503e-18
-7.7425987087441e-19
-4.8570868137113e-19
-2.8769980915948e-19
-1.621370338595e-19
-8.7352755335779e-20
-4.5132562616784e-20
-2.2412103023034e-20
-1.0714716273138e-20