# reconstructionError 
# Time               	LNormalInf           	LNormalInf_          	LNormal1_            	LCentreInf_          	LCentre1_            	LCurvInf_            	LCurv1_              	k1                   	k2                   	length               	nCells               	avgVol               
0.001                	5.26442947554606e-03	2.32694700082940e-04	4.95563134799643e-03	2.42712998716037e-03	8.10006523947574e-01	3.15594523964754e-01	1.40000000000000e-03	0.00000000000000e+00	1.00000000000000e-01	4.00000000000000e+02	1.00000000000000e-03
